Compiler and run-time data
===========================================================================
RASPA 2.0.50
Compiled as a 64-bits application
Compiler: gcc 11.4.0
Compile Date = May 30 2025, Compile Time = 14:04:11

Mon Jul  7 01:31:00 2025
Simulation started on Monday, July 07.
The start time was 01:31 AM.

Hostname:    DESKTOP-3IBJ11D
OS type:     Linux on x86_64
OS release:  6.6.87.2-microsoft-standard-WSL2
OS version:  #1 SMP PREEMPT_DYNAMIC Thu Jun  5 18:30:46 UTC 2025

Simulation
===========================================================================
Dimensions: 3
Random number seed: 1751851859
RASPA directory set to: /home/dydtkddhkdwk/RASPA2
String appended to output-files: 
Number of cycles: 10000
Number of initializing cycles: 1000
Number of equilibration cycles: 0
Print every: 100
Triclinic boundary condition applied
Timestep: 0.000500
	Degrees of freedom:                        0
	Translational Degrees of freedom:          0
	Rotational Degrees of freedom:             0
	Degrees of freedom Framework:              0


Mutual consistent basic set of units:
======================================
Unit of temperature: Kelvin
Unit of length:      1e-10 [m]
Unit of time:        1e-12 [s]
Unit of mass:        1.66054e-27 [kg]
Unit of charge:      1.60218e-19 [C/particle]

Derived units and their conversion factors:
===========================================
Unit of energy:              1.66054e-23 [J]
Unit of force:               1.66054e-13 [N]
Unit of pressure:            1.66054e+07 [Pa]
Unit of velocity:            100 [m/s]
Unit of acceleration:        1e-08 [m^2/s]
Unit of diffusion:           1e-08 [m^2/s]
Unit of dipole moment:       1.60218e-29 [C.m]
Unit of electric potential:  0.000103643 [V]
Unit of electric field:      1.03643e+06 [V]
Unit of polarizability:      1.54587e-35 [-]
Unit of Coulomb potential:   167101.0800066561  [K]
Unit of dielectric constant: 0.0000154587       [s^2 C^2/(kg m^3)]
Unit of wave vectors:        5.3088374589       [cm^1]
Boltzmann constant:          0.8314464919       [-]

Internal conversion factors:
===========================================
Energy to Kelvin:                                    1.2027242847
FH correction factor                                 2.0211930949
Heat capacity conversion factor:                    10.0000088723
From Debye to internal units:                        4.8032067991
Isothermal compressibility conversion factor:        0.0000000602

Energy conversion factors:
===========================================
From mdyne/A to kcal/mol/A^2:           143.933
From mdyne/A to kj/mol/A^2:             602.214
From mdyne/A to K/A^2:                  72429.7
From mdyne A/rad^2 to kcal/mol/deg^2:   0.0438444


Properties computed
===========================================================================
Movies: no
Radial Distribution Function: no
Number of molecules GCMC histogram: no
Histogram of the molecule positions: no
Free energy profiles: no
Pore Size Distribution Function: no
End-to-end distance: no
Histogram of the energy of the system: no
Compute thermodynamic factors: no
Framework spacing histograms: no
Residence times histograms: no
Distance histograms: no
Bend Angle histograms: no
Dihedral angle histograms: no
Angle between planes histograms: no
Molecule properties: no
Infra-red spectra: no
Mean-squared displacement using modified order-N algorithm: no
Velocity-autocorrelation function modified order-N algorithm: no
Rotational velocity-autocorrelation function modified order-N algorithm: no
Molecular orientation-autocorrelation function modified order-N algorithm: no
Bond orientation-autocorrelation function modified order-N algorithm: no
Mean-squared displacement (conventional algorithm): no
Velocity-autocorrelation function (conventional algorithm): no
3D density grid for adsorbates: no
Compute cation an/or adsorption sites: no
dcTST snapshots: no
Compute pressure and stress: no


VTK
===========================================================================
VTK fractional-range position framework atoms: [-0.001000,1.001000] [-0.001000,1.001000] [-0.001000,1.001000]
VTK fractional-range position framework bonds: [-0.151000,1.151000] [-0.151000,1.151000] [-0.151000,1.151000]
VTK fractional-range com-position adsorbate molecules: [-0.101000,1.101000] [-0.101000,1.101000] [-0.101000,1.101000]
VTK fractional-range com-position cation molecules: [-0.101000,1.101000] [-0.101000,1.101000] [-0.101000,1.101000]
	3D free energy grid made for the full simulation-cell


Thermo/Baro-stat NHC parameters
===========================================================================
External temperature: 298 [K]
Beta: 0.00403598 [energy unit]
External Pressure: 101325 [Pa]


Thermostat chain-length: 3
Timescale parameter for thermostat: 0.150000 [ps]
Barostat chain-length:   3
Timescale parameter for barostat:   0.150000 [ps]

Number of Yoshida-Suzuki decomposition steps: 5
Number of respa steps: 5


Method and settings for electrostatics
===============================================================================
Dielectric constant of the medium : 1.000000
Charge from charge-equilibration: no
Ewald summation is used (exact solution of a periodic system)
Relative precision                : 1e-06
Alpha convergence parameter       : 0.265058
kvec (x,y,z)                      : 7 10 12


CFC-RXMC parameters
===========================================================================
Number of reactions: 0


Rattle parameters
===========================================================================
Distance constraint type: r^2-r^2_0
Bend angle constraint type: theta-theta_0
Dihedral angle constraint type: phi-phi_0
Inversion-bend angle constraint type: chi-chi_0
Out-of-plane distance constraint type: r-r_0


Spectra parameters
===========================================================================
Compute normal modes: no


Minimization parameters
===========================================================================
Generalized coordinates are: Cartesian center-of-mass, elements of the orientational matrix p1,p2,p3 and strain
Potential derivatives are evaluated: analytically
Translation of the system is removed from the generalized Hessian: no
Rotation of the system is removed from the generalized Hessian: no
Maximum step-length: 0.3
Convergence factor: 1
Maximum number of minimization steps: 10000
Use gradients in the line-minimizations: yes
RMS gradient tolerance: 1e-06
Maximum gradient tolerance: 1e-06

Distance constraints: 0
Angle constraints: 0
Dihedral constraints: 0

Improper dihedral constraints: 0

Inversion-bend constraints: 0

Out-of-plane constraints: 0

Harmonic distance constraints: 0
Harmonic angle constraints: 0
Harmonic dihedral constraints: 0

Dihedral mid-point measurements: 0

All framework atoms are fixed

Fixed adsorbate atoms:  
Fixed adsorbate groups (center-of-mass):  
Fixed adsorbate groups (orientation):  

Fixed cation atoms:  
Fixed cation groups (center-of-mass):  
Fixed cation groups (orientation):  


dcTST parameters
===========================================================================
Free energy profiles computed: no
Free energy profiles written every 5000 cycles
Free energy mapping: mapped to a,b,c-coordinates
BarrierPosition:       0.0000000000       0.0000000000       0.0000000000
BarrierNormal:         0.0000000000       0.0000000000       0.0000000000
Start with a molecule on top of the barrier: no
Maximum distance to barrier (e.g. distance to minumum free energy):       0.0000000000 [A]
Maximum trajectory time:      10.0000000000 [ps]
Each configuration is used with 5 different initial velocities


Cbmc parameters
===========================================================================
Biasing method: using only the VDW part
Number of trial positions:                                       10
Number of trial positions (reinsertion):                         10
Number of trial positions (partial reinsertion):                 10
Number of trial positions (identity-change):                     10
Number of trial positions (Gibbs particle transfer):             10
Number of trial positions (insertion/deletion):                  10
Number of trial positions (Widom insertion):                     10
Number of trial positions coupled Torsion-selection:             100
Number of trial positions first bead:                            10
Number of trial positions first bead (reinsertion):              10
Number of trial positions first bead (partial reinsertion):      10
Number of trial positions first bead (identity-change):          10
Number of trial positions first bead (Gibbs particle transfer):  10
Number of trial positions first bead (insertion/deletion):       10
Number of trial positions first bead (Widom insertion):          10
Number of trial moves per open bead:                             150
Target acceptance ratio small-mc scheme:                         0.400000
Energy overlap criteria:                                         1e+07
Minimal Rosenbluth factor:                                       1e-150


Pseudo atoms: 45
===========================================================================
Pseudo Atom[   0] Name UNIT     Oxidation:          Element: H    pdb-name: H    Scat. Types:   1   1 Mass=1.000000000  B-factor:0.000   
                 Charge=1.000000000          Polarization=0.000000000  [A^3] (considered a charged atom and no polarization)  Interactions: yes
                 Anisotropic factor:    0.000 [-] (Absolute), Radius:    1.000 [A], Framework-atom:  no
Pseudo Atom[   1] Name DUMMY    Oxidation: +0       Element: H    pdb-name: H    Scat. Types:   1   1 Mass=1.000000000  B-factor:1.000   
                 Charge=0.000000000          Polarization=0.000000000  [A^3] (considered a chargeless atom and no polarization)  Interactions: yes
                 Anisotropic factor:    0.000 [-] (Absolute), Radius:    1.000 [A], Framework-atom:  no
Pseudo Atom[   2] Name He       Oxidation: +0       Element: He   pdb-name: He   Scat. Types:   3   2 Mass=4.002602000  B-factor:1.000   
                 Charge=0.000000000          Polarization=0.000000000  [A^3] (considered a chargeless atom and no polarization)  Interactions: yes
                 Anisotropic factor:    0.000 [-] (Absolute), Radius:    1.000 [A], Framework-atom:  no
Pseudo Atom[   3] Name Ar       Oxidation: +0       Element: Ar   pdb-name: Ar   Scat. Types:  19  18 Mass=39.948000000 B-factor:1.000   
                 Charge=0.000000000          Polarization=0.000000000  [A^3] (considered a chargeless atom and no polarization)  Interactions: yes
                 Anisotropic factor:    0.000 [-] (Absolute), Radius:    1.000 [A], Framework-atom:  no
Pseudo Atom[   4] Name O        Oxidation: +0       Element: O    pdb-name: O    Scat. Types:   9   8 Mass=15.999400000 B-factor:1.000   
                 Charge=-1.025000000         Polarization=0.000000000  [A^3] (considered a charged atom and no polarization)  Interactions: yes
                 Anisotropic factor:    0.000 [-] (Absolute), Radius:    0.500 [A], Framework-atom: yes (charge from pseudo-atoms file)
Pseudo Atom[   5] Name Oa       Oxidation: +0       Element: O    pdb-name: Oa   Scat. Types:   9  -1 Mass=15.999400000 B-factor:1.000   
                 Charge=-1.200000000         Polarization=0.000000000  [A^3] (considered a charged atom and no polarization)  Interactions: yes
                 Anisotropic factor:    0.000 [-] (Absolute), Radius:    0.500 [A], Framework-atom:  no
Pseudo Atom[   6] Name Op       Oxidation: +0       Element: O    pdb-name: O    Scat. Types:   9   8 Mass=15.999400000 B-factor:1.000   
                 Charge=-0.823000000         Polarization=1.110000000  [A^3] (considered a charged atom and polarizable)  Interactions: yes
                 Anisotropic factor:    0.000 [-] (Absolute), Radius:    0.680 [A], Framework-atom:  no
Pseudo Atom[   7] Name Si       Oxidation: +0       Element: Si   pdb-name: Si   Scat. Types:  15  14 Mass=28.085500000 B-factor:1.000   
                 Charge=2.050000000          Polarization=0.000000000  [A^3] (considered a charged atom and no polarization)  Interactions: yes
                 Anisotropic factor:    0.000 [-] (Absolute), Radius:    1.180 [A], Framework-atom:  no
Pseudo Atom[   8] Name Al       Oxidation: +0       Element: Al   pdb-name: Al   Scat. Types:  14  13 Mass=26.981539000 B-factor:1.000   
                 Charge=1.750000000          Polarization=0.000000000  [A^3] (considered a charged atom and no polarization)  Interactions: yes
                 Anisotropic factor:    0.000 [-] (Absolute), Radius:    1.180 [A], Framework-atom:  no
Pseudo Atom[   9] Name P        Oxidation: +0       Element: P    pdb-name: P    Scat. Types:  16  15 Mass=30.973760000 B-factor:1.000   
                 Charge=2.350000000          Polarization=0.000000000  [A^3] (considered a charged atom and no polarization)  Interactions: yes
                 Anisotropic factor:    0.000 [-] (Absolute), Radius:    1.000 [A], Framework-atom:  no
Pseudo Atom[  10] Name Co       Oxidation: +0       Element: Co   pdb-name: Co   Scat. Types:  28  27 Mass=58.933195000 B-factor:1.000   
                 Charge=0.000000000          Polarization=0.000000000  [A^3] (considered a chargeless atom and no polarization)  Interactions: yes
                 Anisotropic factor:    0.000 [-] (Absolute), Radius:    1.350 [A], Framework-atom:  no
Pseudo Atom[  11] Name Be       Oxidation: +0       Element: Be   pdb-name: Be   Scat. Types:   5   4 Mass=9.012182000  B-factor:1.000   
                 Charge=0.000000000          Polarization=0.000000000  [A^3] (considered a chargeless atom and no polarization)  Interactions: yes
                 Anisotropic factor:    0.000 [-] (Absolute), Radius:    0.900 [A], Framework-atom:  no
Pseudo Atom[  12] Name Ga       Oxidation: +0       Element: Ga   pdb-name: Ga   Scat. Types:  32  31 Mass=69.723000000 B-factor:1.000   
                 Charge=0.000000000          Polarization=0.000000000  [A^3] (considered a chargeless atom and no polarization)  Interactions: yes
                 Anisotropic factor:    0.000 [-] (Absolute), Radius:    1.260 [A], Framework-atom:  no
Pseudo Atom[  13] Name H        Oxidation: +0       Element: H    pdb-name: H    Scat. Types:   1   1 Mass=1.007940000  B-factor:1.000   
                 Charge=0.000000000          Polarization=1.000000000  [A^3] (considered a charged atom and polarizable)  Interactions: yes
                 Anisotropic factor:    0.000 [-] (Absolute), Radius:    0.320 [A], Framework-atom: yes (charge from pseudo-atoms file)
Pseudo Atom[  14] Name V        Oxidation: +0       Element: V    pdb-name: V    Scat. Types:  24  23 Mass=50.941500000 B-factor:1.000   
                 Charge=0.000000000          Polarization=1.000000000  [A^3] (considered a charged atom and polarizable)  Interactions: yes
                 Anisotropic factor:    0.000 [-] (Absolute), Radius:    0.320 [A], Framework-atom:  no
Pseudo Atom[  15] Name Mg       Oxidation: +0       Element: Mg   pdb-name: Mg   Scat. Types:  13  12 Mass=24.305000000 B-factor:1.000   
                 Charge=0.000000000          Polarization=1.000000000  [A^3] (considered a charged atom and polarizable)  Interactions: yes
                 Anisotropic factor:    0.000 [-] (Absolute), Radius:    0.320 [A], Framework-atom:  no
Pseudo Atom[  16] Name CH5_sp3  Oxidation: +0       Element: C    pdb-name: C    Scat. Types:   7   6 Mass=16.042460000 B-factor:1.000   
                 Charge=0.000000000          Polarization=0.000000000  [A^3] (considered a chargeless atom and no polarization)  Interactions: yes
                 Anisotropic factor:    0.000 [-] (Absolute), Radius:    1.000 [A], Framework-atom:  no
Pseudo Atom[  17] Name CH4_sp3  Oxidation: +0       Element: C    pdb-name: C    Scat. Types:   7   6 Mass=16.042460000 B-factor:1.000   
                 Charge=0.000000000          Polarization=0.000000000  [A^3] (considered a chargeless atom and no polarization)  Interactions: yes
                 Anisotropic factor:    0.000 [-] (Absolute), Radius:    1.000 [A], Framework-atom:  no
Pseudo Atom[  18] Name CH3_sp3  Oxidation: +0       Element: C    pdb-name: C    Scat. Types:   7   6 Mass=15.034520000 B-factor:1.000   
                 Charge=0.000000000          Polarization=0.000000000  [A^3] (considered a chargeless atom and no polarization)  Interactions: yes
                 Anisotropic factor:    0.000 [-] (Absolute), Radius:    1.000 [A], Framework-atom:  no
Pseudo Atom[  19] Name CH2_sp3  Oxidation: +0       Element: C    pdb-name: C    Scat. Types:   7   6 Mass=14.026580000 B-factor:1.000   
                 Charge=0.000000000          Polarization=0.000000000  [A^3] (considered a chargeless atom and no polarization)  Interactions: yes
                 Anisotropic factor:    0.000 [-] (Absolute), Radius:    1.000 [A], Framework-atom:  no
Pseudo Atom[  20] Name CH_sp3   Oxidation: +0       Element: C    pdb-name: C    Scat. Types:   7   6 Mass=13.018640000 B-factor:1.000   
                 Charge=0.000000000          Polarization=0.000000000  [A^3] (considered a chargeless atom and no polarization)  Interactions: yes
                 Anisotropic factor:    0.000 [-] (Absolute), Radius:    1.000 [A], Framework-atom:  no
Pseudo Atom[  21] Name C_sp3    Oxidation: +0       Element: C    pdb-name: C    Scat. Types:   7   6 Mass=12.000000000 B-factor:1.000   
                 Charge=0.000000000          Polarization=0.000000000  [A^3] (considered a chargeless atom and no polarization)  Interactions: yes
                 Anisotropic factor:    0.000 [-] (Absolute), Radius:    1.000 [A], Framework-atom:  no
Pseudo Atom[  22] Name CH2_sp2  Oxidation: +0       Element: C    pdb-name: C    Scat. Types:   7   6 Mass=14.026580000 B-factor:1.000   
                 Charge=0.000000000          Polarization=0.000000000  [A^3] (considered a chargeless atom and no polarization)  Interactions: yes
                 Anisotropic factor:    0.000 [-] (Absolute), Radius:    1.000 [A], Framework-atom:  no
Pseudo Atom[  23] Name CH_sp2   Oxidation: +0       Element: C    pdb-name: C    Scat. Types:   7   6 Mass=13.018640000 B-factor:1.000   
                 Charge=0.000000000          Polarization=0.000000000  [A^3] (considered a chargeless atom and no polarization)  Interactions: yes
                 Anisotropic factor:    0.000 [-] (Absolute), Radius:    1.000 [A], Framework-atom:  no
Pseudo Atom[  24] Name C_benz   Oxidation: +0       Element: C    pdb-name: C    Scat. Types:   7   6 Mass=12.000000000 B-factor:1.000   
                 Charge=-0.095000000         Polarization=1.000000000  [A^3] (considered a charged atom and polarizable)  Interactions: yes
                 Anisotropic factor:    0.000 [-] (Absolute), Radius:    0.700 [A], Framework-atom:  no
Pseudo Atom[  25] Name H_benz   Oxidation: +0       Element: H    pdb-name: H    Scat. Types:   1   1 Mass=1.007940000  B-factor:1.000   
                 Charge=0.095000000          Polarization=1.000000000  [A^3] (considered a charged atom and polarizable)  Interactions: yes
                 Anisotropic factor:    0.000 [-] (Absolute), Radius:    0.320 [A], Framework-atom:  no
Pseudo Atom[  26] Name Na       Oxidation: +0       Element: Na   pdb-name: Na   Scat. Types:  12  11 Mass=22.989770000 B-factor:1.000   
                 Charge=1.000000000          Polarization=0.000000000  [A^3] (considered a charged atom and no polarization)  Interactions: yes
                 Anisotropic factor:    0.000 [-] (Absolute), Radius:    1.000 [A], Framework-atom:  no
Pseudo Atom[  27] Name Cl       Oxidation: +0       Element: Cl   pdb-name: Cl   Scat. Types:  18  17 Mass=35.452700000 B-factor:1.000   
                 Charge=-1.000000000         Polarization=0.000000000  [A^3] (considered a charged atom and no polarization)  Interactions: yes
                 Anisotropic factor:    0.000 [-] (Absolute), Radius:    1.000 [A], Framework-atom:  no
Pseudo Atom[  28] Name Ca       Oxidation: +0       Element: Ca   pdb-name: Ca   Scat. Types:  21  20 Mass=40.078000000 B-factor:1.000   
                 Charge=2.000000000          Polarization=0.000000000  [A^3] (considered a charged atom and no polarization)  Interactions: yes
                 Anisotropic factor:    0.000 [-] (Absolute), Radius:    1.000 [A], Framework-atom:  no
Pseudo Atom[  29] Name C_co2    Oxidation: +0       Element: C    pdb-name: C    Scat. Types:   7   6 Mass=12.000000000 B-factor:1.000   
                 Charge=0.651200000          Polarization=0.000000000  [A^3] (considered a charged atom and no polarization)  Interactions: yes
                 Anisotropic factor:    0.000 [-] (Absolute), Radius:    0.720 [A], Framework-atom:  no
Pseudo Atom[  30] Name O_co2    Oxidation: +0       Element: O    pdb-name: O    Scat. Types:   9   8 Mass=15.999400000 B-factor:1.000   
                 Charge=-0.325600000         Polarization=0.000000000  [A^3] (considered a charged atom and no polarization)  Interactions: yes
                 Anisotropic factor:    0.000 [-] (Absolute), Radius:    0.680 [A], Framework-atom:  no
Pseudo Atom[  31] Name O_o2     Oxidation: +0       Element: O    pdb-name: O    Scat. Types:   9   8 Mass=15.999400000 B-factor:1.000   
                 Charge=-0.112000000         Polarization=0.000000000  [A^3] (considered a charged atom and no polarization)  Interactions: yes
                 Anisotropic factor:    0.000 [-] (Absolute), Radius:    0.700 [A], Framework-atom:  no
Pseudo Atom[  32] Name O_com    Oxidation: +0       Element: -    pdb-name: O    Scat. Types:   0   8 Mass=0.000000000  B-factor:1.000   
                 Charge=0.224000000          Polarization=0.000000000  [A^3] (considered a charged atom and no polarization)  Interactions: yes
                 Anisotropic factor:    0.000 [-] (Absolute), Radius:    0.700 [A], Framework-atom:  no
Pseudo Atom[  33] Name N_n2     Oxidation: +0       Element: N    pdb-name: N    Scat. Types:   8   7 Mass=14.006740000 B-factor:1.000   
                 Charge=-0.404800000         Polarization=0.000000000  [A^3] (considered a charged atom and no polarization)  Interactions: yes
                 Anisotropic factor:    0.000 [-] (Absolute), Radius:    0.700 [A], Framework-atom:  no
Pseudo Atom[  34] Name N_com    Oxidation: +0       Element: -    pdb-name: N    Scat. Types:   0   7 Mass=0.000000000  B-factor:1.000   
                 Charge=0.809600000          Polarization=0.000000000  [A^3] (considered a charged atom and no polarization)  Interactions: yes
                 Anisotropic factor:    0.000 [-] (Absolute), Radius:    0.700 [A], Framework-atom:  no
Pseudo Atom[  35] Name Ow       Oxidation: +0       Element: O    pdb-name: O    Scat. Types:   9   8 Mass=15.999400000 B-factor:1.000   
                 Charge=0.000000000          Polarization=0.000000000  [A^3] (considered a chargeless atom and no polarization)  Interactions: yes
                 Anisotropic factor:    0.000 [-] (Absolute), Radius:    0.500 [A], Framework-atom:  no
Pseudo Atom[  36] Name Hw       Oxidation: +0       Element: H    pdb-name: H    Scat. Types:   1   1 Mass=1.008000000  B-factor:1.000   
                 Charge=0.241000000          Polarization=0.000000000  [A^3] (considered a charged atom and no polarization)  Interactions: yes
                 Anisotropic factor:    0.000 [-] (Absolute), Radius:    1.000 [A], Framework-atom:  no
Pseudo Atom[  37] Name Lw       Oxidation: +0       Element: -    pdb-name: L    Scat. Types:   0   3 Mass=0.000000000  B-factor:1.000   
                 Charge=-0.241000000         Polarization=0.000000000  [A^3] (considered a charged atom and no polarization)  Interactions: yes
                 Anisotropic factor:    0.000 [-] (Absolute), Radius:    1.000 [A], Framework-atom:  no
Pseudo Atom[  38] Name H_h2     Oxidation: +0       Element: H    pdb-name: H    Scat. Types:   1   1 Mass=1.007940000  B-factor:1.000   
                 Charge=0.468000000          Polarization=0.000000000  [A^3] (considered a charged atom and no polarization)  Interactions: yes
                 Anisotropic factor:    0.000 [-] (Absolute), Radius:    0.700 [A], Framework-atom:  no
Pseudo Atom[  39] Name H_com    Oxidation: +0       Element: -    pdb-name: H    Scat. Types:   0   1 Mass=0.000000000  B-factor:1.000   
                 Charge=-0.936000000         Polarization=0.000000000  [A^3] (considered a charged atom and no polarization)  Interactions: yes
                 Anisotropic factor:    0.000 [-] (Absolute), Radius:    0.700 [A], Framework-atom:  no
Pseudo Atom[  40] Name N_nh3    Oxidation: +0       Element: N    pdb-name: N    Scat. Types:   8   7 Mass=14.006700000 B-factor:1.000   
                 Charge=0.000000000          Polarization=0.000000000  [A^3] (considered a chargeless atom and no polarization)  Interactions: yes
                 Anisotropic factor:    0.000 [-] (Relative), Radius:    0.700 [A], Framework-atom:  no
Pseudo Atom[  41] Name H_nh3    Oxidation: +0       Element: H    pdb-name: H    Scat. Types:   1   1 Mass=1.007900000  B-factor:1.000   
                 Charge=0.410000000          Polarization=0.000000000  [A^3] (considered a charged atom and no polarization)  Interactions: yes
                 Anisotropic factor:    0.000 [-] (Relative), Radius:    0.700 [A], Framework-atom:  no
Pseudo Atom[  42] Name M_nh3    Oxidation: +0       Element: H    pdb-name: H    Scat. Types:   1   1 Mass=0.000000000  B-factor:1.000   
                 Charge=-1.230000000         Polarization=0.000000000  [A^3] (considered a charged atom and no polarization)  Interactions: yes
                 Anisotropic factor:    0.000 [-] (Relative), Radius:    0.700 [A], Framework-atom:  no
Pseudo Atom[  43] Name Mn       Oxidation:          Element: Mn   pdb-name: Mn   Scat. Types:  26  25 Mass=54.938045100 B-factor:0.000   
                 Charge=0.000000000  (-na-)  Polarization=9.400000000  [A^3] (considered a charged atom and no polarization)  Interactions: yes
                 Anisotropic factor:    0.000 [-] (Absolute), Radius:    1.290 [A], Framework-atom: yes (charge definition not found)
Pseudo Atom[  44] Name C        Oxidation:          Element: C    pdb-name: C    Scat. Types:   7   6 Mass=12.010735897 B-factor:0.000   
                 Charge=0.000000000  (-na-)  Polarization=1.760000000  [A^3] (considered a charged atom and no polarization)  Interactions: yes
                 Anisotropic factor:    0.000 [-] (Absolute), Radius:    0.750 [A], Framework-atom: yes (charge definition not found)


Forcefield: GarciaPerez2006ForceField
===========================================================================
Minimal distance: 1
CutOff VDW : 12.000000 (144.000000)
CutOff VDW switching on: 10.800000 (116.640000)
CutOff charge-charge : 12.000000 (144.000000)
CutOff charge-charge switching on: 7.800000 (60.840000)
CutOff charge-bonddipole : 12.000000 (144.000000)
CutOff charge-bondipole switching on: 8.400000 (70.560000)
CutOff bonddipole-bonddipole : 12.000000 (144.000000)
CutOff bonddipole-bondipole switching on: 9.000000 (81.000000)
Polarization is neglected
All potentials are shifted to zero at the Cutoff

General mixing rule: Lorentz-Berthelot mixing rules are used FIRST for cross terms
0 cross terms are overwritten using the individual mixing rules from the file 'force_field_mixing_rules.def'
and then 0 terms are overwritten using the specific interactions from the file 'force_field.def'

The force field and all the interactions:
  DUMMY -      Si [HARD_SPHERE] radius:   1.00000
  DUMMY -      Al [HARD_SPHERE] radius:   1.00000
  DUMMY -   O_com [ZERO_POTENTIAL]
  DUMMY -   N_com [ZERO_POTENTIAL]
  DUMMY -   H_com [ZERO_POTENTIAL]
     He -      He [LENNARD_JONES] p_0/k_B:  10.90000 [K], p_1: 2.64000 [A], shift/k_B:  -0.00494280 [K], tailcorrection: no
     He -      Ar [LENNARD_JONES] p_0/k_B:  36.77449 [K], p_1: 3.01000 [A], shift/k_B:  -0.03662773 [K], tailcorrection: no
     He -       O [LENNARD_JONES] p_0/k_B:  22.91120 [K], p_1: 2.83657 [A], shift/k_B:  -0.01598491 [K], tailcorrection: no
     He -      Oa [LENNARD_JONES] p_0/k_B:  22.91120 [K], p_1: 2.83657 [A], shift/k_B:  -0.01598491 [K], tailcorrection: no
     He -      Op [LENNARD_JONES] p_0/k_B:  22.91120 [K], p_1: 2.83657 [A], shift/k_B:  -0.01598491 [K], tailcorrection: no
     He -      Si [HARD_SPHERE] radius:   1.00000
     He -      Al [HARD_SPHERE] radius:   1.00000
     He -       P [LENNARD_JONES] p_0/k_B:  41.89543 [K], p_1: 3.16861 [A], shift/k_B:  -0.05678175 [K], tailcorrection: no
     He -      Co [LENNARD_JONES] p_0/k_B:   8.76306 [K], p_1: 2.59933 [A], shift/k_B:  -0.00362036 [K], tailcorrection: no
     He -      Be [LENNARD_JONES] p_0/k_B:  21.59150 [K], p_1: 2.54500 [A], shift/k_B:  -0.00785855 [K], tailcorrection: no
     He -      Ga [LENNARD_JONES] p_0/k_B:  47.71072 [K], p_1: 3.27241 [A], shift/k_B:  -0.07845346 [K], tailcorrection: no
     He -       H [LENNARD_JONES] p_0/k_B:   9.13090 [K], p_1: 2.74321 [A], shift/k_B:  -0.00521169 [K], tailcorrection: no
     He -       V [LENNARD_JONES] p_0/k_B:   9.36811 [K], p_1: 2.72050 [A], shift/k_B:  -0.00508690 [K], tailcorrection: no
     He -      Mg [LENNARD_JONES] p_0/k_B:  24.67480 [K], p_1: 2.66570 [A], shift/k_B:  -0.01185896 [K], tailcorrection: no
     He - CH5_sp3 [LENNARD_JONES] p_0/k_B:  22.83928 [K], p_1: 3.05649 [A], shift/k_B:  -0.02493896 [K], tailcorrection: no
     He - CH4_sp3 [LENNARD_JONES] p_0/k_B:  41.56501 [K], p_1: 3.18000 [A], shift/k_B:  -0.05755893 [K], tailcorrection: no
     He - CH3_sp3 [LENNARD_JONES] p_0/k_B:  32.68333 [K], p_1: 3.19500 [A], shift/k_B:  -0.04655531 [K], tailcorrection: no
     He - CH2_sp3 [LENNARD_JONES] p_0/k_B:  22.39196 [K], p_1: 3.29500 [A], shift/k_B:  -0.03837170 [K], tailcorrection: no
     He -  CH_sp3 [LENNARD_JONES] p_0/k_B:  13.61249 [K], p_1: 3.65500 [A], shift/k_B:  -0.04343978 [K], tailcorrection: no
     He -   C_sp3 [LENNARD_JONES] p_0/k_B:   2.95296 [K], p_1: 4.51000 [A], shift/k_B:  -0.03319436 [K], tailcorrection: no
     He - CH2_sp2 [LENNARD_JONES] p_0/k_B:  31.83866 [K], p_1: 3.16250 [A], shift/k_B:  -0.04265451 [K], tailcorrection: no
     He -  CH_sp2 [LENNARD_JONES] p_0/k_B:  24.03539 [K], p_1: 3.19000 [A], shift/k_B:  -0.03391677 [K], tailcorrection: no
     He -  C_benz [LENNARD_JONES] p_0/k_B:  18.29289 [K], p_1: 3.12000 [A], shift/k_B:  -0.02259687 [K], tailcorrection: no
     He -  H_benz [LENNARD_JONES] p_0/k_B:  16.65548 [K], p_1: 2.50000 [A], shift/k_B:  -0.00544671 [K], tailcorrection: no
     He -      Na [LENNARD_JONES] p_0/k_B:  12.78671 [K], p_1: 2.65000 [A], shift/k_B:  -0.00593139 [K], tailcorrection: no
     He -      Cl [LENNARD_JONES] p_0/k_B:  39.41987 [K], p_1: 3.07966 [A], shift/k_B:  -0.04503811 [K], tailcorrection: no
     He -      Ca [LENNARD_JONES] p_0/k_B:  16.56031 [K], p_1: 2.86500 [A], shift/k_B:  -0.01226615 [K], tailcorrection: no
     He -   C_co2 [LENNARD_JONES] p_0/k_B:  17.15517 [K], p_1: 2.72000 [A], shift/k_B:  -0.00930512 [K], tailcorrection: no
     He -   O_co2 [LENNARD_JONES] p_0/k_B:  29.34451 [K], p_1: 2.84500 [A], shift/k_B:  -0.02084087 [K], tailcorrection: no
     He -    O_o2 [LENNARD_JONES] p_0/k_B:  23.11060 [K], p_1: 2.83000 [A], shift/k_B:  -0.01590112 [K], tailcorrection: no
     He -   O_com [ZERO_POTENTIAL]
     He -    N_n2 [LENNARD_JONES] p_0/k_B:  20.43155 [K], p_1: 2.97300 [A], shift/k_B:  -0.01889482 [K], tailcorrection: no
     He -   N_com [ZERO_POTENTIAL]
     He -      Ow [LENNARD_JONES] p_0/k_B:  31.25699 [K], p_1: 2.86850 [A], shift/k_B:  -0.02332211 [K], tailcorrection: no
     He -      Hw [LENNARD_JONES] p_0/k_B:   9.13090 [K], p_1: 2.74321 [A], shift/k_B:  -0.00521169 [K], tailcorrection: no
     He -      Lw [LENNARD_JONES] p_0/k_B:   7.76383 [K], p_1: 2.76000 [A], shift/k_B:  -0.00459662 [K], tailcorrection: no
     He -    H_h2 [LENNARD_JONES] p_0/k_B:  20.00075 [K], p_1: 2.79900 [A], shift/k_B:  -0.01288149 [K], tailcorrection: no
     He -   H_com [ZERO_POTENTIAL]
     He -   N_nh3 [LENNARD_JONES] p_0/k_B:  44.90546 [K], p_1: 3.03000 [A], shift/k_B:  -0.04653876 [K], tailcorrection: no
     He -   H_nh3 [LENNARD_JONES] p_0/k_B:   3.30151 [K], p_1: 1.82000 [A], shift/k_B:  -0.00016073 [K], tailcorrection: no
     He -   M_nh3 [LENNARD_JONES] p_0/k_B:   3.30151 [K], p_1: 1.82000 [A], shift/k_B:  -0.00016073 [K], tailcorrection: no
     He -      Mn [LENNARD_JONES] p_0/k_B:   8.44430 [K], p_1: 2.63898 [A], shift/k_B:  -0.00382031 [K], tailcorrection: no
     He -       C [LENNARD_JONES] p_0/k_B:  22.83928 [K], p_1: 3.05649 [A], shift/k_B:  -0.02493896 [K], tailcorrection: no
     Ar -      Ar [LENNARD_JONES] p_0/k_B: 124.07000 [K], p_1: 3.38000 [A], shift/k_B:  -0.24769804 [K], tailcorrection: no
     Ar -       O [LENNARD_JONES] p_0/k_B:  77.29797 [K], p_1: 3.20657 [A], shift/k_B:  -0.11252029 [K], tailcorrection: no
     Ar -      Oa [LENNARD_JONES] p_0/k_B:  77.29797 [K], p_1: 3.20657 [A], shift/k_B:  -0.11252029 [K], tailcorrection: no
     Ar -      Op [LENNARD_JONES] p_0/k_B:  77.29797 [K], p_1: 3.20657 [A], shift/k_B:  -0.11252029 [K], tailcorrection: no
     Ar -      Si [HARD_SPHERE] radius:   1.00000
     Ar -      Al [HARD_SPHERE] radius:   1.00000
     Ar -       P [LENNARD_JONES] p_0/k_B: 141.34706 [K], p_1: 3.53862 [A], shift/k_B:  -0.37151259 [K], tailcorrection: no
     Ar -      Co [LENNARD_JONES] p_0/k_B:  29.56488 [K], p_1: 2.96933 [A], shift/k_B:  -0.02713936 [K], tailcorrection: no
     Ar -      Be [LENNARD_JONES] p_0/k_B:  72.84555 [K], p_1: 2.91500 [A], shift/k_B:  -0.05985737 [K], tailcorrection: no
     Ar -      Ga [LENNARD_JONES] p_0/k_B: 160.96671 [K], p_1: 3.64241 [A], shift/k_B:  -0.50315085 [K], tailcorrection: no
     Ar -       H [LENNARD_JONES] p_0/k_B:  30.80589 [K], p_1: 3.11321 [A], shift/k_B:  -0.03755989 [K], tailcorrection: no
     Ar -       V [LENNARD_JONES] p_0/k_B:  31.60618 [K], p_1: 3.09049 [A], shift/k_B:  -0.03687959 [K], tailcorrection: no
     Ar -      Mg [LENNARD_JONES] p_0/k_B:  83.24799 [K], p_1: 3.03571 [A], shift/k_B:  -0.08725490 [K], tailcorrection: no
     Ar - CH5_sp3 [LENNARD_JONES] p_0/k_B:  77.05530 [K], p_1: 3.42650 [A], shift/k_B:  -0.16697066 [K], tailcorrection: no
     Ar - CH4_sp3 [LENNARD_JONES] p_0/k_B: 140.23229 [K], p_1: 3.55000 [A], shift/k_B:  -0.37575039 [K], tailcorrection: no
     Ar - CH3_sp3 [LENNARD_JONES] p_0/k_B: 110.26722 [K], p_1: 3.56500 [A], shift/k_B:  -0.30302431 [K], tailcorrection: no
     Ar - CH2_sp3 [LENNARD_JONES] p_0/k_B:  75.54614 [K], p_1: 3.66500 [A], shift/k_B:  -0.24506205 [K], tailcorrection: no
     Ar -  CH_sp3 [LENNARD_JONES] p_0/k_B:  45.92592 [K], p_1: 4.02500 [A], shift/k_B:  -0.26122023 [K], tailcorrection: no
     Ar -   C_sp3 [LENNARD_JONES] p_0/k_B:   9.96273 [K], p_1: 4.88000 [A], shift/k_B:  -0.17943247 [K], tailcorrection: no
     Ar - CH2_sp2 [LENNARD_JONES] p_0/k_B: 107.41746 [K], p_1: 3.53250 [A], shift/k_B:  -0.27942014 [K], tailcorrection: no
     Ar -  CH_sp2 [LENNARD_JONES] p_0/k_B:  81.09075 [K], p_1: 3.56000 [A], shift/k_B:  -0.22097730 [K], tailcorrection: no
     Ar -  C_benz [LENNARD_JONES] p_0/k_B:  61.71668 [K], p_1: 3.49000 [A], shift/k_B:  -0.14930170 [K], tailcorrection: no
     Ar -  H_benz [LENNARD_JONES] p_0/k_B:  56.19236 [K], p_1: 2.87000 [A], shift/k_B:  -0.04205909 [K], tailcorrection: no
     Ar -      Na [LENNARD_JONES] p_0/k_B:  43.13989 [K], p_1: 3.02000 [A], shift/k_B:  -0.04383115 [K], tailcorrection: no
     Ar -      Cl [LENNARD_JONES] p_0/k_B: 132.99499 [K], p_1: 3.44966 [A], shift/k_B:  -0.30006848 [K], tailcorrection: no
     Ar -      Ca [LENNARD_JONES] p_0/k_B:  55.87129 [K], p_1: 3.23500 [A], shift/k_B:  -0.08575120 [K], tailcorrection: no
     Ar -   C_co2 [LENNARD_JONES] p_0/k_B:  57.87823 [K], p_1: 3.09000 [A], shift/k_B:  -0.06747021 [K], tailcorrection: no
     Ar -   O_co2 [LENNARD_JONES] p_0/k_B:  99.00268 [K], p_1: 3.21500 [A], shift/k_B:  -0.14640121 [K], tailcorrection: no
     Ar -    O_o2 [LENNARD_JONES] p_0/k_B:  77.97070 [K], p_1: 3.20000 [A], shift/k_B:  -0.11211084 [K], tailcorrection: no
     Ar -   O_com [ZERO_POTENTIAL]
     Ar -    N_n2 [LENNARD_JONES] p_0/k_B:  68.93209 [K], p_1: 3.34300 [A], shift/k_B:  -0.12882767 [K], tailcorrection: no
     Ar -   N_com [ZERO_POTENTIAL]
     Ar -      Ow [LENNARD_JONES] p_0/k_B: 105.45504 [K], p_1: 3.23850 [A], shift/k_B:  -0.16290539 [K], tailcorrection: no
     Ar -      Hw [LENNARD_JONES] p_0/k_B:  30.80589 [K], p_1: 3.11321 [A], shift/k_B:  -0.03755989 [K], tailcorrection: no
     Ar -      Lw [LENNARD_JONES] p_0/k_B:  26.19365 [K], p_1: 3.13000 [A], shift/k_B:  -0.03298357 [K], tailcorrection: no
     Ar -    H_h2 [LENNARD_JONES] p_0/k_B:  67.47866 [K], p_1: 3.16900 [A], shift/k_B:  -0.09152190 [K], tailcorrection: no
     Ar -   H_com [ZERO_POTENTIAL]
     Ar -   N_nh3 [LENNARD_JONES] p_0/k_B: 151.50231 [K], p_1: 3.40000 [A], shift/k_B:  -0.31335782 [K], tailcorrection: no
     Ar -   H_nh3 [LENNARD_JONES] p_0/k_B:  11.13867 [K], p_1: 2.19000 [A], shift/k_B:  -0.00164609 [K], tailcorrection: no
     Ar -   M_nh3 [LENNARD_JONES] p_0/k_B:  11.13867 [K], p_1: 2.19000 [A], shift/k_B:  -0.00164609 [K], tailcorrection: no
     Ar -      Mn [LENNARD_JONES] p_0/k_B:  28.48942 [K], p_1: 3.00897 [A], shift/k_B:  -0.02831781 [K], tailcorrection: no
     Ar -       C [LENNARD_JONES] p_0/k_B:  77.05530 [K], p_1: 3.42650 [A], shift/k_B:  -0.16697066 [K], tailcorrection: no
      O -       O [LENNARD_JONES] p_0/k_B:  48.15810 [K], p_1: 3.03315 [A], shift/k_B:  -0.05022176 [K], tailcorrection: no
      O -      Oa [LENNARD_JONES] p_0/k_B:  48.15810 [K], p_1: 3.03315 [A], shift/k_B:  -0.05022176 [K], tailcorrection: no
      O -      Op [LENNARD_JONES] p_0/k_B:  48.15810 [K], p_1: 3.03315 [A], shift/k_B:  -0.05022176 [K], tailcorrection: no
      O -      Si [HARD_SPHERE] radius:   1.00000
      O -      Al [HARD_SPHERE] radius:   1.00000
      O -       P [LENNARD_JONES] p_0/k_B:  88.06190 [K], p_1: 3.36519 [A], shift/k_B:  -0.17124064 [K], tailcorrection: no
      O -      Co [LENNARD_JONES] p_0/k_B:  18.41948 [K], p_1: 2.79591 [A], shift/k_B:  -0.01178460 [K], tailcorrection: no
      O -      Be [LENNARD_JONES] p_0/k_B:  45.38416 [K], p_1: 2.74158 [A], shift/k_B:  -0.02581165 [K], tailcorrection: no
      O -      Ga [LENNARD_JONES] p_0/k_B: 100.28532 [K], p_1: 3.46898 [A], shift/k_B:  -0.23397374 [K], tailcorrection: no
      O -       H [LENNARD_JONES] p_0/k_B:  19.19265 [K], p_1: 2.93979 [A], shift/k_B:  -0.01659232 [K], tailcorrection: no
      O -       V [LENNARD_JONES] p_0/k_B:  19.69125 [K], p_1: 2.91707 [A], shift/k_B:  -0.01624940 [K], tailcorrection: no
      O -      Mg [LENNARD_JONES] p_0/k_B:  51.86508 [K], p_1: 2.86228 [A], shift/k_B:  -0.03819797 [K], tailcorrection: no
      O - CH5_sp3 [LENNARD_JONES] p_0/k_B:  48.00691 [K], p_1: 3.25307 [A], shift/k_B:  -0.07618410 [K], tailcorrection: no
      O - CH4_sp3 [LENNARD_JONES] p_0/k_B:  87.36738 [K], p_1: 3.37657 [A], shift/k_B:  -0.17336627 [K], tailcorrection: no
      O - CH3_sp3 [LENNARD_JONES] p_0/k_B:  68.69857 [K], p_1: 3.39158 [A], shift/k_B:  -0.13999333 [K], tailcorrection: no
      O - CH2_sp3 [LENNARD_JONES] p_0/k_B:  47.06668 [K], p_1: 3.49158 [A], shift/k_B:  -0.11416967 [K], tailcorrection: no
      O -  CH_sp3 [LENNARD_JONES] p_0/k_B:  28.61272 [K], p_1: 3.85157 [A], shift/k_B:  -0.12499330 [K], tailcorrection: no
      O -   C_sp3 [LENNARD_JONES] p_0/k_B:   6.20697 [K], p_1: 4.70657 [A], shift/k_B:  -0.09005301 [K], tailcorrection: no
      O - CH2_sp2 [LENNARD_JONES] p_0/k_B:  66.92311 [K], p_1: 3.35907 [A], shift/k_B:  -0.12872351 [K], tailcorrection: no
      O -  CH_sp2 [LENNARD_JONES] p_0/k_B:  50.52108 [K], p_1: 3.38658 [A], shift/k_B:  -0.10204456 [K], tailcorrection: no
      O -  C_benz [LENNARD_JONES] p_0/k_B:  38.45067 [K], p_1: 3.31658 [A], shift/k_B:  -0.06852069 [K], tailcorrection: no
      O -  H_benz [LENNARD_JONES] p_0/k_B:  35.00891 [K], p_1: 2.69658 [A], shift/k_B:  -0.01802894 [K], tailcorrection: no
      O -      Na [LENNARD_JONES] p_0/k_B:  26.87697 [K], p_1: 2.84658 [A], shift/k_B:  -0.01915187 [K], tailcorrection: no
      O -      Cl [LENNARD_JONES] p_0/k_B:  82.85840 [K], p_1: 3.27623 [A], shift/k_B:  -0.13720800 [K], tailcorrection: no
      O -      Ca [LENNARD_JONES] p_0/k_B:  34.80888 [K], p_1: 3.06157 [A], shift/k_B:  -0.03838947 [K], tailcorrection: no
      O -   C_co2 [LENNARD_JONES] p_0/k_B:  36.05924 [K], p_1: 2.91657 [A], shift/k_B:  -0.02972613 [K], tailcorrection: no
      O -   O_co2 [LENNARD_JONES] p_0/k_B:  61.68055 [K], p_1: 3.04157 [A], shift/k_B:  -0.06540286 [K], tailcorrection: no
      O -    O_o2 [LENNARD_JONES] p_0/k_B:  48.57723 [K], p_1: 3.02658 [A], shift/k_B:  -0.05000369 [K], tailcorrection: no
      O -   O_com [ZERO_POTENTIAL]
      O -    N_n2 [LENNARD_JONES] p_0/k_B:  42.94600 [K], p_1: 3.16958 [A], shift/k_B:  -0.05831146 [K], tailcorrection: no
      O -   N_com [ZERO_POTENTIAL]
      O -      Ow [LENNARD_JONES] p_0/k_B:  65.70049 [K], p_1: 3.06508 [A], shift/k_B:  -0.07295703 [K], tailcorrection: no
      O -      Hw [LENNARD_JONES] p_0/k_B:  19.19265 [K], p_1: 2.93979 [A], shift/k_B:  -0.01659232 [K], tailcorrection: no
      O -      Lw [LENNARD_JONES] p_0/k_B:  16.31914 [K], p_1: 2.95657 [A], shift/k_B:  -0.01459842 [K], tailcorrection: no
      O -    H_h2 [LENNARD_JONES] p_0/k_B:  42.04048 [K], p_1: 2.99558 [A], shift/k_B:  -0.04068331 [K], tailcorrection: no
      O -   H_com [ZERO_POTENTIAL]
      O -   N_nh3 [LENNARD_JONES] p_0/k_B:  94.38882 [K], p_1: 3.22657 [A], shift/k_B:  -0.14261969 [K], tailcorrection: no
      O -   H_nh3 [LENNARD_JONES] p_0/k_B:   6.93960 [K], p_1: 2.01658 [A], shift/k_B:  -0.00062515 [K], tailcorrection: no
      O -   M_nh3 [LENNARD_JONES] p_0/k_B:   6.93960 [K], p_1: 2.01658 [A], shift/k_B:  -0.00062515 [K], tailcorrection: no
      O -      Mn [LENNARD_JONES] p_0/k_B:  17.74945 [K], p_1: 2.83555 [A], shift/k_B:  -0.01235679 [K], tailcorrection: no
      O -       C [LENNARD_JONES] p_0/k_B:  48.00691 [K], p_1: 3.25307 [A], shift/k_B:  -0.07618410 [K], tailcorrection: no
     Oa -      Oa [LENNARD_JONES] p_0/k_B:  48.15810 [K], p_1: 3.03315 [A], shift/k_B:  -0.05022176 [K], tailcorrection: no
     Oa -      Op [LENNARD_JONES] p_0/k_B:  48.15810 [K], p_1: 3.03315 [A], shift/k_B:  -0.05022176 [K], tailcorrection: no
     Oa -      Si [HARD_SPHERE] radius:   1.00000
     Oa -      Al [HARD_SPHERE] radius:   1.00000
     Oa -       P [LENNARD_JONES] p_0/k_B:  88.06190 [K], p_1: 3.36519 [A], shift/k_B:  -0.17124064 [K], tailcorrection: no
     Oa -      Co [LENNARD_JONES] p_0/k_B:  18.41948 [K], p_1: 2.79591 [A], shift/k_B:  -0.01178460 [K], tailcorrection: no
     Oa -      Be [LENNARD_JONES] p_0/k_B:  45.38416 [K], p_1: 2.74158 [A], shift/k_B:  -0.02581165 [K], tailcorrection: no
     Oa -      Ga [LENNARD_JONES] p_0/k_B: 100.28532 [K], p_1: 3.46898 [A], shift/k_B:  -0.23397374 [K], tailcorrection: no
     Oa -       H [LENNARD_JONES] p_0/k_B:  19.19265 [K], p_1: 2.93979 [A], shift/k_B:  -0.01659232 [K], tailcorrection: no
     Oa -       V [LENNARD_JONES] p_0/k_B:  19.69125 [K], p_1: 2.91707 [A], shift/k_B:  -0.01624940 [K], tailcorrection: no
     Oa -      Mg [LENNARD_JONES] p_0/k_B:  51.86508 [K], p_1: 2.86228 [A], shift/k_B:  -0.03819797 [K], tailcorrection: no
     Oa - CH5_sp3 [LENNARD_JONES] p_0/k_B:  48.00691 [K], p_1: 3.25307 [A], shift/k_B:  -0.07618410 [K], tailcorrection: no
     Oa - CH4_sp3 [LENNARD_JONES] p_0/k_B:  87.36738 [K], p_1: 3.37657 [A], shift/k_B:  -0.17336627 [K], tailcorrection: no
     Oa - CH3_sp3 [LENNARD_JONES] p_0/k_B:  68.69857 [K], p_1: 3.39158 [A], shift/k_B:  -0.13999333 [K], tailcorrection: no
     Oa - CH2_sp3 [LENNARD_JONES] p_0/k_B:  47.06668 [K], p_1: 3.49158 [A], shift/k_B:  -0.11416967 [K], tailcorrection: no
     Oa -  CH_sp3 [LENNARD_JONES] p_0/k_B:  28.61272 [K], p_1: 3.85157 [A], shift/k_B:  -0.12499330 [K], tailcorrection: no
     Oa -   C_sp3 [LENNARD_JONES] p_0/k_B:   6.20697 [K], p_1: 4.70657 [A], shift/k_B:  -0.09005301 [K], tailcorrection: no
     Oa - CH2_sp2 [LENNARD_JONES] p_0/k_B:  66.92311 [K], p_1: 3.35907 [A], shift/k_B:  -0.12872351 [K], tailcorrection: no
     Oa -  CH_sp2 [LENNARD_JONES] p_0/k_B:  50.52108 [K], p_1: 3.38658 [A], shift/k_B:  -0.10204456 [K], tailcorrection: no
     Oa -  C_benz [LENNARD_JONES] p_0/k_B:  38.45067 [K], p_1: 3.31658 [A], shift/k_B:  -0.06852069 [K], tailcorrection: no
     Oa -  H_benz [LENNARD_JONES] p_0/k_B:  35.00891 [K], p_1: 2.69658 [A], shift/k_B:  -0.01802894 [K], tailcorrection: no
     Oa -      Na [LENNARD_JONES] p_0/k_B:  26.87697 [K], p_1: 2.84658 [A], shift/k_B:  -0.01915187 [K], tailcorrection: no
     Oa -      Cl [LENNARD_JONES] p_0/k_B:  82.85840 [K], p_1: 3.27623 [A], shift/k_B:  -0.13720800 [K], tailcorrection: no
     Oa -      Ca [LENNARD_JONES] p_0/k_B:  34.80888 [K], p_1: 3.06157 [A], shift/k_B:  -0.03838947 [K], tailcorrection: no
     Oa -   C_co2 [LENNARD_JONES] p_0/k_B:  36.05924 [K], p_1: 2.91657 [A], shift/k_B:  -0.02972613 [K], tailcorrection: no
     Oa -   O_co2 [LENNARD_JONES] p_0/k_B:  61.68055 [K], p_1: 3.04157 [A], shift/k_B:  -0.06540286 [K], tailcorrection: no
     Oa -    O_o2 [LENNARD_JONES] p_0/k_B:  48.57723 [K], p_1: 3.02658 [A], shift/k_B:  -0.05000369 [K], tailcorrection: no
     Oa -   O_com [ZERO_POTENTIAL]
     Oa -    N_n2 [LENNARD_JONES] p_0/k_B:  42.94600 [K], p_1: 3.16958 [A], shift/k_B:  -0.05831146 [K], tailcorrection: no
     Oa -   N_com [ZERO_POTENTIAL]
     Oa -      Ow [LENNARD_JONES] p_0/k_B:  65.70049 [K], p_1: 3.06508 [A], shift/k_B:  -0.07295703 [K], tailcorrection: no
     Oa -      Hw [LENNARD_JONES] p_0/k_B:  19.19265 [K], p_1: 2.93979 [A], shift/k_B:  -0.01659232 [K], tailcorrection: no
     Oa -      Lw [LENNARD_JONES] p_0/k_B:  16.31914 [K], p_1: 2.95657 [A], shift/k_B:  -0.01459842 [K], tailcorrection: no
     Oa -    H_h2 [LENNARD_JONES] p_0/k_B:  42.04048 [K], p_1: 2.99558 [A], shift/k_B:  -0.04068331 [K], tailcorrection: no
     Oa -   H_com [ZERO_POTENTIAL]
     Oa -   N_nh3 [LENNARD_JONES] p_0/k_B:  94.38882 [K], p_1: 3.22657 [A], shift/k_B:  -0.14261969 [K], tailcorrection: no
     Oa -   H_nh3 [LENNARD_JONES] p_0/k_B:   6.93960 [K], p_1: 2.01658 [A], shift/k_B:  -0.00062515 [K], tailcorrection: no
     Oa -   M_nh3 [LENNARD_JONES] p_0/k_B:   6.93960 [K], p_1: 2.01658 [A], shift/k_B:  -0.00062515 [K], tailcorrection: no
     Oa -      Mn [LENNARD_JONES] p_0/k_B:  17.74945 [K], p_1: 2.83555 [A], shift/k_B:  -0.01235679 [K], tailcorrection: no
     Oa -       C [LENNARD_JONES] p_0/k_B:  48.00691 [K], p_1: 3.25307 [A], shift/k_B:  -0.07618410 [K], tailcorrection: no
     Op -      Op [LENNARD_JONES] p_0/k_B:  48.15810 [K], p_1: 3.03315 [A], shift/k_B:  -0.05022176 [K], tailcorrection: no
     Op -      Si [HARD_SPHERE] radius:   1.00000
     Op -      Al [HARD_SPHERE] radius:   1.00000
     Op -       P [LENNARD_JONES] p_0/k_B:  88.06190 [K], p_1: 3.36519 [A], shift/k_B:  -0.17124064 [K], tailcorrection: no
     Op -      Co [LENNARD_JONES] p_0/k_B:  18.41948 [K], p_1: 2.79591 [A], shift/k_B:  -0.01178460 [K], tailcorrection: no
     Op -      Be [LENNARD_JONES] p_0/k_B:  45.38416 [K], p_1: 2.74158 [A], shift/k_B:  -0.02581165 [K], tailcorrection: no
     Op -      Ga [LENNARD_JONES] p_0/k_B: 100.28532 [K], p_1: 3.46898 [A], shift/k_B:  -0.23397374 [K], tailcorrection: no
     Op -       H [LENNARD_JONES] p_0/k_B:  19.19265 [K], p_1: 2.93979 [A], shift/k_B:  -0.01659232 [K], tailcorrection: no
     Op -       V [LENNARD_JONES] p_0/k_B:  19.69125 [K], p_1: 2.91707 [A], shift/k_B:  -0.01624940 [K], tailcorrection: no
     Op -      Mg [LENNARD_JONES] p_0/k_B:  51.86508 [K], p_1: 2.86228 [A], shift/k_B:  -0.03819797 [K], tailcorrection: no
     Op - CH5_sp3 [LENNARD_JONES] p_0/k_B:  48.00691 [K], p_1: 3.25307 [A], shift/k_B:  -0.07618410 [K], tailcorrection: no
     Op - CH4_sp3 [LENNARD_JONES] p_0/k_B:  87.36738 [K], p_1: 3.37657 [A], shift/k_B:  -0.17336627 [K], tailcorrection: no
     Op - CH3_sp3 [LENNARD_JONES] p_0/k_B:  68.69857 [K], p_1: 3.39158 [A], shift/k_B:  -0.13999333 [K], tailcorrection: no
     Op - CH2_sp3 [LENNARD_JONES] p_0/k_B:  47.06668 [K], p_1: 3.49158 [A], shift/k_B:  -0.11416967 [K], tailcorrection: no
     Op -  CH_sp3 [LENNARD_JONES] p_0/k_B:  28.61272 [K], p_1: 3.85157 [A], shift/k_B:  -0.12499330 [K], tailcorrection: no
     Op -   C_sp3 [LENNARD_JONES] p_0/k_B:   6.20697 [K], p_1: 4.70657 [A], shift/k_B:  -0.09005301 [K], tailcorrection: no
     Op - CH2_sp2 [LENNARD_JONES] p_0/k_B:  66.92311 [K], p_1: 3.35907 [A], shift/k_B:  -0.12872351 [K], tailcorrection: no
     Op -  CH_sp2 [LENNARD_JONES] p_0/k_B:  50.52108 [K], p_1: 3.38658 [A], shift/k_B:  -0.10204456 [K], tailcorrection: no
     Op -  C_benz [LENNARD_JONES] p_0/k_B:  38.45067 [K], p_1: 3.31658 [A], shift/k_B:  -0.06852069 [K], tailcorrection: no
     Op -  H_benz [LENNARD_JONES] p_0/k_B:  35.00891 [K], p_1: 2.69658 [A], shift/k_B:  -0.01802894 [K], tailcorrection: no
     Op -      Na [LENNARD_JONES] p_0/k_B:  26.87697 [K], p_1: 2.84658 [A], shift/k_B:  -0.01915187 [K], tailcorrection: no
     Op -      Cl [LENNARD_JONES] p_0/k_B:  82.85840 [K], p_1: 3.27623 [A], shift/k_B:  -0.13720800 [K], tailcorrection: no
     Op -      Ca [LENNARD_JONES] p_0/k_B:  34.80888 [K], p_1: 3.06157 [A], shift/k_B:  -0.03838947 [K], tailcorrection: no
     Op -   C_co2 [LENNARD_JONES] p_0/k_B:  36.05924 [K], p_1: 2.91657 [A], shift/k_B:  -0.02972613 [K], tailcorrection: no
     Op -   O_co2 [LENNARD_JONES] p_0/k_B:  61.68055 [K], p_1: 3.04157 [A], shift/k_B:  -0.06540286 [K], tailcorrection: no
     Op -    O_o2 [LENNARD_JONES] p_0/k_B:  48.57723 [K], p_1: 3.02658 [A], shift/k_B:  -0.05000369 [K], tailcorrection: no
     Op -   O_com [ZERO_POTENTIAL]
     Op -    N_n2 [LENNARD_JONES] p_0/k_B:  42.94600 [K], p_1: 3.16958 [A], shift/k_B:  -0.05831146 [K], tailcorrection: no
     Op -   N_com [ZERO_POTENTIAL]
     Op -      Ow [LENNARD_JONES] p_0/k_B:  65.70049 [K], p_1: 3.06508 [A], shift/k_B:  -0.07295703 [K], tailcorrection: no
     Op -      Hw [LENNARD_JONES] p_0/k_B:  19.19265 [K], p_1: 2.93979 [A], shift/k_B:  -0.01659232 [K], tailcorrection: no
     Op -      Lw [LENNARD_JONES] p_0/k_B:  16.31914 [K], p_1: 2.95657 [A], shift/k_B:  -0.01459842 [K], tailcorrection: no
     Op -    H_h2 [LENNARD_JONES] p_0/k_B:  42.04048 [K], p_1: 2.99558 [A], shift/k_B:  -0.04068331 [K], tailcorrection: no
     Op -   H_com [ZERO_POTENTIAL]
     Op -   N_nh3 [LENNARD_JONES] p_0/k_B:  94.38882 [K], p_1: 3.22657 [A], shift/k_B:  -0.14261969 [K], tailcorrection: no
     Op -   H_nh3 [LENNARD_JONES] p_0/k_B:   6.93960 [K], p_1: 2.01658 [A], shift/k_B:  -0.00062515 [K], tailcorrection: no
     Op -   M_nh3 [LENNARD_JONES] p_0/k_B:   6.93960 [K], p_1: 2.01658 [A], shift/k_B:  -0.00062515 [K], tailcorrection: no
     Op -      Mn [LENNARD_JONES] p_0/k_B:  17.74945 [K], p_1: 2.83555 [A], shift/k_B:  -0.01235679 [K], tailcorrection: no
     Op -       C [LENNARD_JONES] p_0/k_B:  48.00691 [K], p_1: 3.25307 [A], shift/k_B:  -0.07618410 [K], tailcorrection: no
     Si -      Si [HARD_SPHERE] radius:   1.00000
     Si -      Al [HARD_SPHERE] radius:   1.00000
     Si -       P [HARD_SPHERE] radius:   1.00000
     Si -      Co [HARD_SPHERE] radius:   1.00000
     Si -      Be [HARD_SPHERE] radius:   1.00000
     Si -      Ga [HARD_SPHERE] radius:   1.00000
     Si -       H [HARD_SPHERE] radius:   1.00000
     Si -       V [HARD_SPHERE] radius:   1.00000
     Si -      Mg [HARD_SPHERE] radius:   1.00000
     Si - CH5_sp3 [HARD_SPHERE] radius:   1.00000
     Si - CH4_sp3 [HARD_SPHERE] radius:   1.00000
     Si - CH3_sp3 [HARD_SPHERE] radius:   1.00000
     Si - CH2_sp3 [HARD_SPHERE] radius:   1.00000
     Si -  CH_sp3 [HARD_SPHERE] radius:   1.00000
     Si -   C_sp3 [HARD_SPHERE] radius:   1.00000
     Si - CH2_sp2 [HARD_SPHERE] radius:   1.00000
     Si -  CH_sp2 [HARD_SPHERE] radius:   1.00000
     Si -  C_benz [HARD_SPHERE] radius:   1.00000
     Si -  H_benz [HARD_SPHERE] radius:   1.00000
     Si -      Na [HARD_SPHERE] radius:   1.00000
     Si -      Cl [HARD_SPHERE] radius:   1.00000
     Si -      Ca [HARD_SPHERE] radius:   1.00000
     Si -   C_co2 [HARD_SPHERE] radius:   1.00000
     Si -   O_co2 [HARD_SPHERE] radius:   1.00000
     Si -    O_o2 [HARD_SPHERE] radius:   1.00000
     Si -   O_com [HARD_SPHERE] radius:   1.00000
     Si -    N_n2 [HARD_SPHERE] radius:   1.00000
     Si -   N_com [HARD_SPHERE] radius:   1.00000
     Si -      Ow [HARD_SPHERE] radius:   1.00000
     Si -      Hw [HARD_SPHERE] radius:   1.00000
     Si -      Lw [HARD_SPHERE] radius:   1.00000
     Si -    H_h2 [HARD_SPHERE] radius:   1.00000
     Si -   H_com [HARD_SPHERE] radius:   1.00000
     Si -   N_nh3 [HARD_SPHERE] radius:   1.00000
     Si -   H_nh3 [HARD_SPHERE] radius:   1.00000
     Si -   M_nh3 [HARD_SPHERE] radius:   1.00000
     Si -      Mn [HARD_SPHERE] radius:   1.00000
     Si -       C [HARD_SPHERE] radius:   1.00000
     Al -      Al [HARD_SPHERE] radius:   1.00000
     Al -       P [HARD_SPHERE] radius:   1.00000
     Al -      Co [HARD_SPHERE] radius:   1.00000
     Al -      Be [HARD_SPHERE] radius:   1.00000
     Al -      Ga [HARD_SPHERE] radius:   1.00000
     Al -       H [HARD_SPHERE] radius:   1.00000
     Al -       V [HARD_SPHERE] radius:   1.00000
     Al -      Mg [HARD_SPHERE] radius:   1.00000
     Al - CH5_sp3 [HARD_SPHERE] radius:   1.00000
     Al - CH4_sp3 [HARD_SPHERE] radius:   1.00000
     Al - CH3_sp3 [HARD_SPHERE] radius:   1.00000
     Al - CH2_sp3 [HARD_SPHERE] radius:   1.00000
     Al -  CH_sp3 [HARD_SPHERE] radius:   1.00000
     Al -   C_sp3 [HARD_SPHERE] radius:   1.00000
     Al - CH2_sp2 [HARD_SPHERE] radius:   1.00000
     Al -  CH_sp2 [HARD_SPHERE] radius:   1.00000
     Al -  C_benz [HARD_SPHERE] radius:   1.00000
     Al -  H_benz [HARD_SPHERE] radius:   1.00000
     Al -      Na [HARD_SPHERE] radius:   1.00000
     Al -      Cl [HARD_SPHERE] radius:   1.00000
     Al -      Ca [HARD_SPHERE] radius:   1.00000
     Al -   C_co2 [HARD_SPHERE] radius:   1.00000
     Al -   O_co2 [HARD_SPHERE] radius:   1.00000
     Al -    O_o2 [HARD_SPHERE] radius:   1.00000
     Al -   O_com [HARD_SPHERE] radius:   1.00000
     Al -    N_n2 [HARD_SPHERE] radius:   1.00000
     Al -   N_com [HARD_SPHERE] radius:   1.00000
     Al -      Ow [HARD_SPHERE] radius:   1.00000
     Al -      Hw [HARD_SPHERE] radius:   1.00000
     Al -      Lw [HARD_SPHERE] radius:   1.00000
     Al -    H_h2 [HARD_SPHERE] radius:   1.00000
     Al -   H_com [HARD_SPHERE] radius:   1.00000
     Al -   N_nh3 [HARD_SPHERE] radius:   1.00000
     Al -   H_nh3 [HARD_SPHERE] radius:   1.00000
     Al -   M_nh3 [HARD_SPHERE] radius:   1.00000
     Al -      Mn [HARD_SPHERE] radius:   1.00000
     Al -       C [HARD_SPHERE] radius:   1.00000
      P -       P [LENNARD_JONES] p_0/k_B: 161.03000 [K], p_1: 3.69723 [A], shift/k_B:  -0.55051158 [K], tailcorrection: no
      P -      Co [LENNARD_JONES] p_0/k_B:  33.68186 [K], p_1: 3.12794 [A], shift/k_B:  -0.04224613 [K], tailcorrection: no
      P -      Be [LENNARD_JONES] p_0/k_B:  82.98948 [K], p_1: 3.07362 [A], shift/k_B:  -0.09370649 [K], tailcorrection: no
      P -      Ga [LENNARD_JONES] p_0/k_B: 183.38174 [K], p_1: 3.80102 [A], shift/k_B:  -0.74010046 [K], tailcorrection: no
      P -       H [LENNARD_JONES] p_0/k_B:  35.09569 [K], p_1: 3.27182 [A], shift/k_B:  -0.05764852 [K], tailcorrection: no
      P -       V [LENNARD_JONES] p_0/k_B:  36.00743 [K], p_1: 3.24911 [A], shift/k_B:  -0.05672571 [K], tailcorrection: no
      P -      Mg [LENNARD_JONES] p_0/k_B:  94.84048 [K], p_1: 3.19432 [A], shift/k_B:  -0.13492184 [K], tailcorrection: no
      P - CH5_sp3 [LENNARD_JONES] p_0/k_B:  87.78544 [K], p_1: 3.58511 [A], shift/k_B:  -0.24951749 [K], tailcorrection: no
      P - CH4_sp3 [LENNARD_JONES] p_0/k_B: 159.75999 [K], p_1: 3.70861 [A], shift/k_B:  -0.55632999 [K], tailcorrection: no
      P - CH3_sp3 [LENNARD_JONES] p_0/k_B: 125.62221 [K], p_1: 3.72361 [A], shift/k_B:  -0.44816683 [K], tailcorrection: no
      P - CH2_sp3 [LENNARD_JONES] p_0/k_B:  86.06614 [K], p_1: 3.82362 [A], shift/k_B:  -0.35991092 [K], tailcorrection: no
      P -  CH_sp3 [LENNARD_JONES] p_0/k_B:  52.32122 [K], p_1: 4.18361 [A], shift/k_B:  -0.37512853 [K], tailcorrection: no
      P -   C_sp3 [LENNARD_JONES] p_0/k_B:  11.35007 [K], p_1: 5.03862 [A], shift/k_B:  -0.24742950 [K], tailcorrection: no
      P - CH2_sp2 [LENNARD_JONES] p_0/k_B: 122.37561 [K], p_1: 3.69111 [A], shift/k_B:  -0.41423316 [K], tailcorrection: no
      P -  CH_sp2 [LENNARD_JONES] p_0/k_B:  92.38284 [K], p_1: 3.71861 [A], shift/k_B:  -0.32693875 [K], tailcorrection: no
      P -  C_benz [LENNARD_JONES] p_0/k_B:  70.31089 [K], p_1: 3.64861 [A], shift/k_B:  -0.22203430 [K], tailcorrection: no
      P -  H_benz [LENNARD_JONES] p_0/k_B:  64.01729 [K], p_1: 3.02861 [A], shift/k_B:  -0.06616403 [K], tailcorrection: no
      P -      Na [LENNARD_JONES] p_0/k_B:  49.14723 [K], p_1: 3.17861 [A], shift/k_B:  -0.06788113 [K], tailcorrection: no
      P -      Cl [LENNARD_JONES] p_0/k_B: 151.51488 [K], p_1: 3.60827 [A], shift/k_B:  -0.44761483 [K], tailcorrection: no
      P -      Ca [LENNARD_JONES] p_0/k_B:  63.65151 [K], p_1: 3.39361 [A], shift/k_B:  -0.13017705 [K], tailcorrection: no
      P -   C_co2 [LENNARD_JONES] p_0/k_B:  65.93793 [K], p_1: 3.24862 [A], shift/k_B:  -0.10378301 [K], tailcorrection: no
      P -   O_co2 [LENNARD_JONES] p_0/k_B: 112.78905 [K], p_1: 3.37362 [A], shift/k_B:  -0.22263739 [K], tailcorrection: no
      P -    O_o2 [LENNARD_JONES] p_0/k_B:  88.82832 [K], p_1: 3.35861 [A], shift/k_B:  -0.17071688 [K], tailcorrection: no
      P -   O_com [ZERO_POTENTIAL]
      P -    N_n2 [LENNARD_JONES] p_0/k_B:  78.53106 [K], p_1: 3.50162 [A], shift/k_B:  -0.19380105 [K], tailcorrection: no
      P -   N_com [ZERO_POTENTIAL]
      P -      Ow [LENNARD_JONES] p_0/k_B: 120.13993 [K], p_1: 3.39711 [A], shift/k_B:  -0.24722807 [K], tailcorrection: no
      P -      Hw [LENNARD_JONES] p_0/k_B:  35.09569 [K], p_1: 3.27182 [A], shift/k_B:  -0.05764852 [K], tailcorrection: no
      P -      Lw [LENNARD_JONES] p_0/k_B:  29.84118 [K], p_1: 3.28862 [A], shift/k_B:  -0.05054552 [K], tailcorrection: no
      P -    H_h2 [LENNARD_JONES] p_0/k_B:  76.87523 [K], p_1: 3.32761 [A], shift/k_B:  -0.13975259 [K], tailcorrection: no
      P -   H_com [ZERO_POTENTIAL]
      P -   N_nh3 [LENNARD_JONES] p_0/k_B: 172.59939 [K], p_1: 3.55861 [A], shift/k_B:  -0.46924789 [K], tailcorrection: no
      P -   H_nh3 [LENNARD_JONES] p_0/k_B:  12.68976 [K], p_1: 2.34861 [A], shift/k_B:  -0.00285281 [K], tailcorrection: no
      P -   M_nh3 [LENNARD_JONES] p_0/k_B:  12.68976 [K], p_1: 2.34861 [A], shift/k_B:  -0.00285281 [K], tailcorrection: no
      P -      Mn [LENNARD_JONES] p_0/k_B:  32.45665 [K], p_1: 3.16759 [A], shift/k_B:  -0.04390389 [K], tailcorrection: no
      P -       C [LENNARD_JONES] p_0/k_B:  87.78544 [K], p_1: 3.58511 [A], shift/k_B:  -0.24951749 [K], tailcorrection: no
     Co -      Co [LENNARD_JONES] p_0/k_B:   7.04507 [K], p_1: 2.55866 [A], shift/k_B:  -0.00264784 [K], tailcorrection: no
     Co -      Be [LENNARD_JONES] p_0/k_B:  17.35850 [K], p_1: 2.50433 [A], shift/k_B:  -0.00573586 [K], tailcorrection: no
     Co -      Ga [LENNARD_JONES] p_0/k_B:  38.35706 [K], p_1: 3.23174 [A], shift/k_B:  -0.05851491 [K], tailcorrection: no
     Co -       H [LENNARD_JONES] p_0/k_B:   7.34079 [K], p_1: 2.70254 [A], shift/k_B:  -0.00383082 [K], tailcorrection: no
     Co -       V [LENNARD_JONES] p_0/k_B:   7.53150 [K], p_1: 2.67983 [A], shift/k_B:  -0.00373627 [K], tailcorrection: no
     Co -      Mg [LENNARD_JONES] p_0/k_B:  19.83732 [K], p_1: 2.62504 [A], shift/k_B:  -0.00869398 [K], tailcorrection: no
     Co - CH5_sp3 [LENNARD_JONES] p_0/k_B:  18.36165 [K], p_1: 3.01582 [A], shift/k_B:  -0.01850170 [K], tailcorrection: no
     Co - CH4_sp3 [LENNARD_JONES] p_0/k_B:  33.41622 [K], p_1: 3.13933 [A], shift/k_B:  -0.04283634 [K], tailcorrection: no
     Co - CH3_sp3 [LENNARD_JONES] p_0/k_B:  26.27578 [K], p_1: 3.15433 [A], shift/k_B:  -0.03465993 [K], tailcorrection: no
     Co - CH2_sp3 [LENNARD_JONES] p_0/k_B:  18.00203 [K], p_1: 3.25433 [A], shift/k_B:  -0.02863458 [K], tailcorrection: no
     Co -  CH_sp3 [LENNARD_JONES] p_0/k_B:  10.94377 [K], p_1: 3.61433 [A], shift/k_B:  -0.03265744 [K], tailcorrection: no
     Co -   C_sp3 [LENNARD_JONES] p_0/k_B:   2.37404 [K], p_1: 4.46933 [A], shift/k_B:  -0.02527866 [K], tailcorrection: no
     Co - CH2_sp2 [LENNARD_JONES] p_0/k_B:  25.59671 [K], p_1: 3.12183 [A], shift/k_B:  -0.03173054 [K], tailcorrection: no
     Co -  CH_sp2 [LENNARD_JONES] p_0/k_B:  19.32327 [K], p_1: 3.14933 [A], shift/k_B:  -0.02524761 [K], tailcorrection: no
     Co -  C_benz [LENNARD_JONES] p_0/k_B:  14.70659 [K], p_1: 3.07933 [A], shift/k_B:  -0.01679182 [K], tailcorrection: no
     Co -  H_benz [LENNARD_JONES] p_0/k_B:  13.39018 [K], p_1: 2.45933 [A], shift/k_B:  -0.00396851 [K], tailcorrection: no
     Co -      Na [LENNARD_JONES] p_0/k_B:  10.27989 [K], p_1: 2.60933 [A], shift/k_B:  -0.00434599 [K], tailcorrection: no
     Co -      Cl [LENNARD_JONES] p_0/k_B:  31.69163 [K], p_1: 3.03899 [A], shift/k_B:  -0.03343321 [K], tailcorrection: no
     Co -      Ca [LENNARD_JONES] p_0/k_B:  13.31368 [K], p_1: 2.82433 [A], shift/k_B:  -0.00905085 [K], tailcorrection: no
     Co -   C_co2 [LENNARD_JONES] p_0/k_B:  13.79191 [K], p_1: 2.67933 [A], shift/k_B:  -0.00683440 [K], tailcorrection: no
     Co -   O_co2 [LENNARD_JONES] p_0/k_B:  23.59154 [K], p_1: 2.80433 [A], shift/k_B:  -0.01536854 [K], tailcorrection: no
     Co -    O_o2 [LENNARD_JONES] p_0/k_B:  18.57979 [K], p_1: 2.78933 [A], shift/k_B:  -0.01172044 [K], tailcorrection: no
     Co -   O_com [ZERO_POTENTIAL]
     Co -    N_n2 [LENNARD_JONES] p_0/k_B:  16.42596 [K], p_1: 2.93233 [A], shift/k_B:  -0.01398582 [K], tailcorrection: no
     Co -   N_com [ZERO_POTENTIAL]
     Co -      Ow [LENNARD_JONES] p_0/k_B:  25.12908 [K], p_1: 2.82783 [A], shift/k_B:  -0.01721054 [K], tailcorrection: no
     Co -      Hw [LENNARD_JONES] p_0/k_B:   7.34079 [K], p_1: 2.70254 [A], shift/k_B:  -0.00383082 [K], tailcorrection: no
     Co -      Lw [LENNARD_JONES] p_0/k_B:   6.24173 [K], p_1: 2.71933 [A], shift/k_B:  -0.00338057 [K], tailcorrection: no
     Co -    H_h2 [LENNARD_JONES] p_0/k_B:  16.07962 [K], p_1: 2.75833 [A], shift/k_B:  -0.00948553 [K], tailcorrection: no
     Co -   H_com [ZERO_POTENTIAL]
     Co -   N_nh3 [LENNARD_JONES] p_0/k_B:  36.10177 [K], p_1: 2.98933 [A], shift/k_B:  -0.03450169 [K], tailcorrection: no
     Co -   H_nh3 [LENNARD_JONES] p_0/k_B:   2.65426 [K], p_1: 1.77933 [A], shift/k_B:  -0.00011284 [K], tailcorrection: no
     Co -   M_nh3 [LENNARD_JONES] p_0/k_B:   2.65426 [K], p_1: 1.77933 [A], shift/k_B:  -0.00011284 [K], tailcorrection: no
     Co -      Mn [LENNARD_JONES] p_0/k_B:   6.78880 [K], p_1: 2.59830 [A], shift/k_B:  -0.00279809 [K], tailcorrection: no
     Co -       C [LENNARD_JONES] p_0/k_B:  18.36165 [K], p_1: 3.01582 [A], shift/k_B:  -0.01850170 [K], tailcorrection: no
     Be -      Be [LENNARD_JONES] p_0/k_B:  42.77000 [K], p_1: 2.45000 [A], shift/k_B:  -0.01239016 [K], tailcorrection: no
     Be -      Ga [LENNARD_JONES] p_0/k_B:  94.50881 [K], p_1: 3.17741 [A], shift/k_B:  -0.13023586 [K], tailcorrection: no
     Be -       H [LENNARD_JONES] p_0/k_B:  18.08714 [K], p_1: 2.64821 [A], shift/k_B:  -0.00835616 [K], tailcorrection: no
     Be -       V [LENNARD_JONES] p_0/k_B:  18.55702 [K], p_1: 2.62549 [A], shift/k_B:  -0.00814142 [K], tailcorrection: no
     Be -      Mg [LENNARD_JONES] p_0/k_B:  48.87761 [K], p_1: 2.57071 [A], shift/k_B:  -0.01889531 [K], tailcorrection: no
     Be - CH5_sp3 [LENNARD_JONES] p_0/k_B:  45.24168 [K], p_1: 2.96150 [A], shift/k_B:  -0.04087701 [K], tailcorrection: no
     Be - CH4_sp3 [LENNARD_JONES] p_0/k_B:  82.33496 [K], p_1: 3.08500 [A], shift/k_B:  -0.09505225 [K], tailcorrection: no
     Be - CH3_sp3 [LENNARD_JONES] p_0/k_B:  64.74149 [K], p_1: 3.10000 [A], shift/k_B:  -0.07694781 [K], tailcorrection: no
     Be - CH2_sp3 [LENNARD_JONES] p_0/k_B:  44.35561 [K], p_1: 3.20000 [A], shift/k_B:  -0.06377709 [K], tailcorrection: no
     Be -  CH_sp3 [LENNARD_JONES] p_0/k_B:  26.96461 [K], p_1: 3.56000 [A], shift/k_B:  -0.07348021 [K], tailcorrection: no
     Be -   C_sp3 [LENNARD_JONES] p_0/k_B:   5.84944 [K], p_1: 4.41500 [A], shift/k_B:  -0.05788858 [K], tailcorrection: no
     Be - CH2_sp2 [LENNARD_JONES] p_0/k_B:  63.06830 [K], p_1: 3.06750 [A], shift/k_B:  -0.07036713 [K], tailcorrection: no
     Be -  CH_sp2 [LENNARD_JONES] p_0/k_B:  47.61103 [K], p_1: 3.09500 [A], shift/k_B:  -0.05604232 [K], tailcorrection: no
     Be -  C_benz [LENNARD_JONES] p_0/k_B:  36.23588 [K], p_1: 3.02500 [A], shift/k_B:  -0.03718366 [K], tailcorrection: no
     Be -  H_benz [LENNARD_JONES] p_0/k_B:  32.99237 [K], p_1: 2.40500 [A], shift/k_B:  -0.00855162 [K], tailcorrection: no
     Be -      Na [LENNARD_JONES] p_0/k_B:  25.32884 [K], p_1: 2.55500 [A], shift/k_B:  -0.00943828 [K], tailcorrection: no
     Be -      Cl [LENNARD_JONES] p_0/k_B:  78.08570 [K], p_1: 2.98466 [A], shift/k_B:  -0.07392824 [K], tailcorrection: no
     Be -      Ca [LENNARD_JONES] p_0/k_B:  32.80386 [K], p_1: 2.77000 [A], shift/k_B:  -0.01984771 [K], tailcorrection: no
     Be -   C_co2 [LENNARD_JONES] p_0/k_B:  33.98220 [K], p_1: 2.62500 [A], shift/k_B:  -0.01489197 [K], tailcorrection: no
     Be -   O_co2 [LENNARD_JONES] p_0/k_B:  58.12770 [K], p_1: 2.75000 [A], shift/k_B:  -0.03367355 [K], tailcorrection: no
     Be -    O_o2 [LENNARD_JONES] p_0/k_B:  45.77914 [K], p_1: 2.73500 [A], shift/k_B:  -0.02566394 [K], tailcorrection: no
     Be -   O_com [ZERO_POTENTIAL]
     Be -    N_n2 [LENNARD_JONES] p_0/k_B:  40.47228 [K], p_1: 2.87800 [A], shift/k_B:  -0.03080295 [K], tailcorrection: no
     Be -   N_com [ZERO_POTENTIAL]
     Be -      Ow [LENNARD_JONES] p_0/k_B:  61.91610 [K], p_1: 2.77350 [A], shift/k_B:  -0.03774669 [K], tailcorrection: no
     Be -      Hw [LENNARD_JONES] p_0/k_B:  18.08714 [K], p_1: 2.64821 [A], shift/k_B:  -0.00835616 [K], tailcorrection: no
     Be -      Lw [LENNARD_JONES] p_0/k_B:  15.37914 [K], p_1: 2.66500 [A], shift/k_B:  -0.00737965 [K], tailcorrection: no
     Be -    H_h2 [LENNARD_JONES] p_0/k_B:  39.61892 [K], p_1: 2.70400 [A], shift/k_B:  -0.02074237 [K], tailcorrection: no
     Be -   H_com [ZERO_POTENTIAL]
     Be -   N_nh3 [LENNARD_JONES] p_0/k_B:  88.95195 [K], p_1: 2.93500 [A], shift/k_B:  -0.07615241 [K], tailcorrection: no
     Be -   H_nh3 [LENNARD_JONES] p_0/k_B:   6.53988 [K], p_1: 1.72500 [A], shift/k_B:  -0.00023082 [K], tailcorrection: no
     Be -   M_nh3 [LENNARD_JONES] p_0/k_B:   6.53988 [K], p_1: 1.72500 [A], shift/k_B:  -0.00023082 [K], tailcorrection: no
     Be -      Mn [LENNARD_JONES] p_0/k_B:  16.72707 [K], p_1: 2.54398 [A], shift/k_B:  -0.00607337 [K], tailcorrection: no
     Be -       C [LENNARD_JONES] p_0/k_B:  45.24168 [K], p_1: 2.96150 [A], shift/k_B:  -0.04087701 [K], tailcorrection: no
     Ga -      Ga [LENNARD_JONES] p_0/k_B: 208.83600 [K], p_1: 3.90481 [A], shift/k_B:  -0.99051586 [K], tailcorrection: no
     Ga -       H [LENNARD_JONES] p_0/k_B:  39.96714 [K], p_1: 3.37561 [A], shift/k_B:  -0.07917312 [K], tailcorrection: no
     Ga -       V [LENNARD_JONES] p_0/k_B:  41.00543 [K], p_1: 3.35290 [A], shift/k_B:  -0.07800650 [K], tailcorrection: no
     Ga -      Mg [LENNARD_JONES] p_0/k_B: 108.00480 [K], p_1: 3.29811 [A], shift/k_B:  -0.18613118 [K], tailcorrection: no
     Ga - CH5_sp3 [LENNARD_JONES] p_0/k_B:  99.97048 [K], p_1: 3.68890 [A], shift/k_B:  -0.33717777 [K], tailcorrection: no
     Ga - CH4_sp3 [LENNARD_JONES] p_0/k_B: 181.93544 [K], p_1: 3.81241 [A], shift/k_B:  -0.74754478 [K], tailcorrection: no
     Ga - CH3_sp3 [LENNARD_JONES] p_0/k_B: 143.05918 [K], p_1: 3.82740 [A], shift/k_B:  -0.60180709 [K], tailcorrection: no
     Ga - CH2_sp3 [LENNARD_JONES] p_0/k_B:  98.01253 [K], p_1: 3.92741 [A], shift/k_B:  -0.48123164 [K], tailcorrection: no
     Ga -  CH_sp3 [LENNARD_JONES] p_0/k_B:  59.58366 [K], p_1: 4.28740 [A], shift/k_B:  -0.49472335 [K], tailcorrection: no
     Ga -   C_sp3 [LENNARD_JONES] p_0/k_B:  12.92551 [K], p_1: 5.14241 [A], shift/k_B:  -0.31821442 [K], tailcorrection: no
     Ga - CH2_sp2 [LENNARD_JONES] p_0/k_B: 139.36193 [K], p_1: 3.79490 [A], shift/k_B:  -0.55704142 [K], tailcorrection: no
     Ga -  CH_sp2 [LENNARD_JONES] p_0/k_B: 105.20603 [K], p_1: 3.82240 [A], shift/k_B:  -0.43911619 [K], tailcorrection: no
     Ga -  C_benz [LENNARD_JONES] p_0/k_B:  80.07038 [K], p_1: 3.75240 [A], shift/k_B:  -0.29915510 [K], tailcorrection: no
     Ga -  H_benz [LENNARD_JONES] p_0/k_B:  72.90320 [K], p_1: 3.13240 [A], shift/k_B:  -0.09222510 [K], tailcorrection: no
     Ga -      Na [LENNARD_JONES] p_0/k_B:  55.96910 [K], p_1: 3.28240 [A], shift/k_B:  -0.09373286 [K], tailcorrection: no
     Ga -      Cl [LENNARD_JONES] p_0/k_B: 172.54587 [K], p_1: 3.71206 [A], shift/k_B:  -0.60421266 [K], tailcorrection: no
     Ga -      Ca [LENNARD_JONES] p_0/k_B:  72.48665 [K], p_1: 3.49740 [A], shift/k_B:  -0.17759871 [K], tailcorrection: no
     Ga -   C_co2 [LENNARD_JONES] p_0/k_B:  75.09043 [K], p_1: 3.35241 [A], shift/k_B:  -0.14272152 [K], tailcorrection: no
     Ga -   O_co2 [LENNARD_JONES] p_0/k_B: 128.44471 [K], p_1: 3.47741 [A], shift/k_B:  -0.30406269 [K], tailcorrection: no
     Ga -    O_o2 [LENNARD_JONES] p_0/k_B: 101.15811 [K], p_1: 3.46240 [A], shift/k_B:  -0.23334031 [K], tailcorrection: no
     Ga -   O_com [ZERO_POTENTIAL]
     Ga -    N_n2 [LENNARD_JONES] p_0/k_B:  89.43154 [K], p_1: 3.60541 [A], shift/k_B:  -0.26294687 [K], tailcorrection: no
     Ga -   N_com [ZERO_POTENTIAL]
     Ga -      Ow [LENNARD_JONES] p_0/k_B: 136.81592 [K], p_1: 3.50090 [A], shift/k_B:  -0.33722771 [K], tailcorrection: no
     Ga -      Hw [LENNARD_JONES] p_0/k_B:  39.96714 [K], p_1: 3.37561 [A], shift/k_B:  -0.07917312 [K], tailcorrection: no
     Ga -      Lw [LENNARD_JONES] p_0/k_B:  33.98328 [K], p_1: 3.39241 [A], shift/k_B:  -0.06935251 [K], tailcorrection: no
     Ga -    H_h2 [LENNARD_JONES] p_0/k_B:  87.54588 [K], p_1: 3.43140 [A], shift/k_B:  -0.19133861 [K], tailcorrection: no
     Ga -   H_com [ZERO_POTENTIAL]
     Ga -   N_nh3 [LENNARD_JONES] p_0/k_B: 196.55701 [K], p_1: 3.66240 [A], shift/k_B:  -0.63490411 [K], tailcorrection: no
     Ga -   H_nh3 [LENNARD_JONES] p_0/k_B:  14.45116 [K], p_1: 2.45240 [A], shift/k_B:  -0.00421111 [K], tailcorrection: no
     Ga -   M_nh3 [LENNARD_JONES] p_0/k_B:  14.45116 [K], p_1: 2.45240 [A], shift/k_B:  -0.00421111 [K], tailcorrection: no
     Ga -      Mn [LENNARD_JONES] p_0/k_B:  36.96179 [K], p_1: 3.27138 [A], shift/k_B:  -0.06066429 [K], tailcorrection: no
     Ga -       C [LENNARD_JONES] p_0/k_B:  99.97048 [K], p_1: 3.68890 [A], shift/k_B:  -0.33717777 [K], tailcorrection: no
      H -       H [LENNARD_JONES] p_0/k_B:   7.64893 [K], p_1: 2.84642 [A], shift/k_B:  -0.00544866 [K], tailcorrection: no
      H -       V [LENNARD_JONES] p_0/k_B:   7.84764 [K], p_1: 2.82371 [A], shift/k_B:  -0.00532787 [K], tailcorrection: no
      H -      Mg [LENNARD_JONES] p_0/k_B:  20.67001 [K], p_1: 2.76891 [A], shift/k_B:  -0.01247686 [K], tailcorrection: no
      H - CH5_sp3 [LENNARD_JONES] p_0/k_B:  19.13240 [K], p_1: 3.15970 [A], shift/k_B:  -0.02549626 [K], tailcorrection: no
      H - CH4_sp3 [LENNARD_JONES] p_0/k_B:  34.81889 [K], p_1: 3.28321 [A], shift/k_B:  -0.05839790 [K], tailcorrection: no
      H - CH3_sp3 [LENNARD_JONES] p_0/k_B:  27.37874 [K], p_1: 3.29821 [A], shift/k_B:  -0.04719201 [K], tailcorrection: no
      H - CH2_sp3 [LENNARD_JONES] p_0/k_B:  18.75769 [K], p_1: 3.39821 [A], shift/k_B:  -0.03867488 [K], tailcorrection: no
      H -  CH_sp3 [LENNARD_JONES] p_0/k_B:  11.40315 [K], p_1: 3.75821 [A], shift/k_B:  -0.04300051 [K], tailcorrection: no
      H -   C_sp3 [LENNARD_JONES] p_0/k_B:   2.47369 [K], p_1: 4.61321 [A], shift/k_B:  -0.03183707 [K], tailcorrection: no
      H - CH2_sp2 [LENNARD_JONES] p_0/k_B:  26.67115 [K], p_1: 3.26571 [A], shift/k_B:  -0.04332151 [K], tailcorrection: no
      H -  CH_sp2 [LENNARD_JONES] p_0/k_B:  20.13438 [K], p_1: 3.29321 [A], shift/k_B:  -0.03439076 [K], tailcorrection: no
      H -  C_benz [LENNARD_JONES] p_0/k_B:  15.32391 [K], p_1: 3.22321 [A], shift/k_B:  -0.02300968 [K], tailcorrection: no
      H -  H_benz [LENNARD_JONES] p_0/k_B:  13.95225 [K], p_1: 2.60321 [A], shift/k_B:  -0.00581603 [K], tailcorrection: no
      H -      Na [LENNARD_JONES] p_0/k_B:  10.71139 [K], p_1: 2.75321 [A], shift/k_B:  -0.00624872 [K], tailcorrection: no
      H -      Cl [LENNARD_JONES] p_0/k_B:  33.02191 [K], p_1: 3.18287 [A], shift/k_B:  -0.04597661 [K], tailcorrection: no
      H -      Ca [LENNARD_JONES] p_0/k_B:  13.87253 [K], p_1: 2.96821 [A], shift/k_B:  -0.01270564 [K], tailcorrection: no
      H -   C_co2 [LENNARD_JONES] p_0/k_B:  14.37084 [K], p_1: 2.82321 [A], shift/k_B:  -0.00974631 [K], tailcorrection: no
      H -   O_co2 [LENNARD_JONES] p_0/k_B:  24.58181 [K], p_1: 2.94821 [A], shift/k_B:  -0.02161929 [K], tailcorrection: no
      H -    O_o2 [LENNARD_JONES] p_0/k_B:  19.35969 [K], p_1: 2.93321 [A], shift/k_B:  -0.01651343 [K], tailcorrection: no
      H -   O_com [ZERO_POTENTIAL]
      H -    N_n2 [LENNARD_JONES] p_0/k_B:  17.11545 [K], p_1: 3.07621 [A], shift/k_B:  -0.01942377 [K], tailcorrection: no
      H -   N_com [ZERO_POTENTIAL]
      H -      Ow [LENNARD_JONES] p_0/k_B:  26.18390 [K], p_1: 2.97171 [A], shift/k_B:  -0.02415156 [K], tailcorrection: no
      H -      Hw [LENNARD_JONES] p_0/k_B:   7.64893 [K], p_1: 2.84642 [A], shift/k_B:  -0.00544866 [K], tailcorrection: no
      H -      Lw [LENNARD_JONES] p_0/k_B:   6.50374 [K], p_1: 2.86321 [A], shift/k_B:  -0.00479926 [K], tailcorrection: no
      H -    H_h2 [LENNARD_JONES] p_0/k_B:  16.75457 [K], p_1: 2.90221 [A], shift/k_B:  -0.01340886 [K], tailcorrection: no
      H -   H_com [ZERO_POTENTIAL]
      H -   N_nh3 [LENNARD_JONES] p_0/k_B:  37.61718 [K], p_1: 3.13321 [A], shift/k_B:  -0.04766045 [K], tailcorrection: no
      H -   H_nh3 [LENNARD_JONES] p_0/k_B:   2.76567 [K], p_1: 1.92321 [A], shift/k_B:  -0.00018747 [K], tailcorrection: no
      H -   M_nh3 [LENNARD_JONES] p_0/k_B:   2.76567 [K], p_1: 1.92321 [A], shift/k_B:  -0.00018747 [K], tailcorrection: no
      H -      Mn [LENNARD_JONES] p_0/k_B:   7.07377 [K], p_1: 2.74219 [A], shift/k_B:  -0.00402849 [K], tailcorrection: no
      H -       C [LENNARD_JONES] p_0/k_B:  19.13240 [K], p_1: 3.15970 [A], shift/k_B:  -0.02549626 [K], tailcorrection: no
      V -       V [LENNARD_JONES] p_0/k_B:   8.05151 [K], p_1: 2.80099 [A], shift/k_B:  -0.00520774 [K], tailcorrection: no
      V -      Mg [LENNARD_JONES] p_0/k_B:  21.20699 [K], p_1: 2.74620 [A], shift/k_B:  -0.01218378 [K], tailcorrection: no
      V - CH5_sp3 [LENNARD_JONES] p_0/k_B:  19.62943 [K], p_1: 3.13699 [A], shift/k_B:  -0.02505073 [K], tailcorrection: no
      V - CH4_sp3 [LENNARD_JONES] p_0/k_B:  35.72344 [K], p_1: 3.26050 [A], shift/k_B:  -0.05747147 [K], tailcorrection: no
      V - CH3_sp3 [LENNARD_JONES] p_0/k_B:  28.09000 [K], p_1: 3.27550 [A], shift/k_B:  -0.04645219 [K], tailcorrection: no
      V - CH2_sp3 [LENNARD_JONES] p_0/k_B:  19.24499 [K], p_1: 3.37549 [A], shift/k_B:  -0.03811533 [K], tailcorrection: no
      V -  CH_sp3 [LENNARD_JONES] p_0/k_B:  11.69939 [K], p_1: 3.73550 [A], shift/k_B:  -0.04254311 [K], tailcorrection: no
      V -   C_sp3 [LENNARD_JONES] p_0/k_B:   2.53795 [K], p_1: 4.59049 [A], shift/k_B:  -0.03171394 [K], tailcorrection: no
      V - CH2_sp2 [LENNARD_JONES] p_0/k_B:  27.36404 [K], p_1: 3.24300 [A], shift/k_B:  -0.04262468 [K], tailcorrection: no
      V -  CH_sp2 [LENNARD_JONES] p_0/k_B:  20.65744 [K], p_1: 3.27050 [A], shift/k_B:  -0.03384948 [K], tailcorrection: no
      V -  C_benz [LENNARD_JONES] p_0/k_B:  15.72200 [K], p_1: 3.20050 [A], shift/k_B:  -0.02262700 [K], tailcorrection: no
      V -  H_benz [LENNARD_JONES] p_0/k_B:  14.31471 [K], p_1: 2.58049 [A], shift/k_B:  -0.00566148 [K], tailcorrection: no
      V -      Na [LENNARD_JONES] p_0/k_B:  10.98966 [K], p_1: 2.73050 [A], shift/k_B:  -0.00610021 [K], tailcorrection: no
      V -      Cl [LENNARD_JONES] p_0/k_B:  33.87978 [K], p_1: 3.16016 [A], shift/k_B:  -0.04518752 [K], tailcorrection: no
      V -      Ca [LENNARD_JONES] p_0/k_B:  14.23292 [K], p_1: 2.94550 [A], shift/k_B:  -0.01244862 [K], tailcorrection: no
      V -   C_co2 [LENNARD_JONES] p_0/k_B:  14.74418 [K], p_1: 2.80049 [A], shift/k_B:  -0.00952646 [K], tailcorrection: no
      V -   O_co2 [LENNARD_JONES] p_0/k_B:  25.22041 [K], p_1: 2.92549 [A], shift/k_B:  -0.02117531 [K], tailcorrection: no
      V -    O_o2 [LENNARD_JONES] p_0/k_B:  19.86263 [K], p_1: 2.91050 [A], shift/k_B:  -0.01617044 [K], tailcorrection: no
      V -   O_com [ZERO_POTENTIAL]
      V -    N_n2 [LENNARD_JONES] p_0/k_B:  17.56009 [K], p_1: 3.05349 [A], shift/k_B:  -0.01906183 [K], tailcorrection: no
      V -   N_com [ZERO_POTENTIAL]
      V -      Ow [LENNARD_JONES] p_0/k_B:  26.86412 [K], p_1: 2.94900 [A], shift/k_B:  -0.02366430 [K], tailcorrection: no
      V -      Hw [LENNARD_JONES] p_0/k_B:   7.84764 [K], p_1: 2.82371 [A], shift/k_B:  -0.00532787 [K], tailcorrection: no
      V -      Lw [LENNARD_JONES] p_0/k_B:   6.67269 [K], p_1: 2.84049 [A], shift/k_B:  -0.00469420 [K], tailcorrection: no
      V -    H_h2 [LENNARD_JONES] p_0/k_B:  17.18983 [K], p_1: 2.87950 [A], shift/k_B:  -0.01312379 [K], tailcorrection: no
      V -   H_com [ZERO_POTENTIAL]
      V -   N_nh3 [LENNARD_JONES] p_0/k_B:  38.59442 [K], p_1: 3.11050 [A], shift/k_B:  -0.04681040 [K], tailcorrection: no
      V -   H_nh3 [LENNARD_JONES] p_0/k_B:   2.83752 [K], p_1: 1.90050 [A], shift/k_B:  -0.00017910 [K], tailcorrection: no
      V -   M_nh3 [LENNARD_JONES] p_0/k_B:   2.83752 [K], p_1: 1.90050 [A], shift/k_B:  -0.00017910 [K], tailcorrection: no
      V -      Mn [LENNARD_JONES] p_0/k_B:   7.25753 [K], p_1: 2.71947 [A], shift/k_B:  -0.00393195 [K], tailcorrection: no
      V -       C [LENNARD_JONES] p_0/k_B:  19.62943 [K], p_1: 3.13699 [A], shift/k_B:  -0.02505073 [K], tailcorrection: no
     Mg -      Mg [LENNARD_JONES] p_0/k_B:  55.85740 [K], p_1: 2.69141 [A], shift/k_B:  -0.02843656 [K], tailcorrection: no
     Mg - CH5_sp3 [LENNARD_JONES] p_0/k_B:  51.70225 [K], p_1: 3.08220 [A], shift/k_B:  -0.05936386 [K], tailcorrection: no
     Mg - CH4_sp3 [LENNARD_JONES] p_0/k_B:  94.09250 [K], p_1: 3.20571 [A], shift/k_B:  -0.13674484 [K], tailcorrection: no
     Mg - CH3_sp3 [LENNARD_JONES] p_0/k_B:  73.98666 [K], p_1: 3.22070 [A], shift/k_B:  -0.11057813 [K], tailcorrection: no
     Mg - CH2_sp3 [LENNARD_JONES] p_0/k_B:  50.68965 [K], p_1: 3.32071 [A], shift/k_B:  -0.09100778 [K], tailcorrection: no
     Mg -  CH_sp3 [LENNARD_JONES] p_0/k_B:  30.81519 [K], p_1: 3.68070 [A], shift/k_B:  -0.10255613 [K], tailcorrection: no
     Mg -   C_sp3 [LENNARD_JONES] p_0/k_B:   6.68475 [K], p_1: 4.53571 [A], shift/k_B:  -0.07774249 [K], tailcorrection: no
     Mg - CH2_sp2 [LENNARD_JONES] p_0/k_B:  72.07453 [K], p_1: 3.18820 [A], shift/k_B:  -0.10136289 [K], tailcorrection: no
     Mg -  CH_sp2 [LENNARD_JONES] p_0/k_B:  54.40995 [K], p_1: 3.21570 [A], shift/k_B:  -0.08056514 [K], tailcorrection: no
     Mg -  C_benz [LENNARD_JONES] p_0/k_B:  41.41041 [K], p_1: 3.14570 [A], shift/k_B:  -0.05373399 [K], tailcorrection: no
     Mg -  H_benz [LENNARD_JONES] p_0/k_B:  37.70372 [K], p_1: 2.52570 [A], shift/k_B:  -0.01311036 [K], tailcorrection: no
     Mg -      Na [LENNARD_JONES] p_0/k_B:  28.94583 [K], p_1: 2.67570 [A], shift/k_B:  -0.01422769 [K], tailcorrection: no
     Mg -      Cl [LENNARD_JONES] p_0/k_B:  89.23644 [K], p_1: 3.10536 [A], shift/k_B:  -0.10716679 [K], tailcorrection: no
[...]
	                      67.7995240279 (avg.  69.7482184815) [cm^3 STP/g],   91.8880568945 (avg.  94.5291041494) [cm^3 STP/cm^3]
----------------------------------------------------------------------------------------------------------------------------------------------------
Degrees of freedom: 475 0 475 0
Number of Framework-atoms:   2784
Number of Adsorbates:          95 (95 integer, 0 fractional, 0 reaction)
Number of Cations:              0 (0 integer, 0 fractional, 0 reaction)

Current total potential energy:           -571786.3748840723 [K]  (avg.     -569309.1739549024)
	Current Host-Host energy:                     0.0000000000 [K]  (avg.           0.0000000000)
	Current Host-Adsorbate energy:          -555715.9816463918 [K]  (avg.     -555495.5420526906)
	Current Host-Cation energy:                   0.0000000000 [K]  (avg.           0.0000000000)
	Current Adsorbate-Adsorbate energy:      -16070.3932376561 [K]  (avg.      -13813.6319022002)
	Current Cation-Cation energy:                 0.0000000000 [K]  (avg.           0.0000000000)
	Current Adsorbate-Cation energy:              0.0000000000 [K]  (avg.           0.0000000000)

WARNING: THE SYSTEM HAS A NET CHARGE 


Current cycle: 8800 out of 10000
========================================================================================================

Net charge: -590.4 (F: -590.4, A: 0, C: 0)
Current Box:  25.09940  -4.63725   0.00000 [A]   Average Box:  25.09940  -4.63725   0.00000 [A]
               0.00000  35.19017   0.00000 [A]                  0.00000  35.19017   0.00000 [A]
               0.00000   0.00000  43.56600 [A]                  0.00000   0.00000  43.56600 [A]
Box-lengths:   25.09940  35.49440  43.56600 [A] Average:  25.09940  35.49440  43.56600 [A]
Box-angles:   90.00000  90.00000  97.50700 [degrees] Average:  90.00000  90.00000  97.50700 [degrees]
Volume: 38479.76789 [A^3] Average Volume: 38479.76789 [A^3]

Loadings per component:
----------------------------------------------------------------------------------------------------------------------------------------------------
Component 0 (CO2), current number of integer/fractional/reaction molecules: 96/0/0 (avg.  97.70719), density: 182.27580 (avg. 185.51726) [kg/m^3]
	absolute adsorption:  12.00000 (avg.  12.21340) [mol/uc],   3.0567180049 (avg.   3.1110763969) [mol/kg], 134.4919241524 (avg. 136.8836281732) [mg/g]
	                      68.5132032282 (avg.  69.7315909097) [cm^3 STP/g],   92.8552995986 (avg.  94.5065689578) [cm^3 STP/cm^3]
	excess adsorption:    12.0000000000 (avg.  12.2133990456) [mol/uc],   3.0567180049 (avg.   3.1110763969) [mol/kg], 134.4919241524 (avg. 136.8836281732) [mg/g]
	                      68.5132032282 (avg.  69.7315909097) [cm^3 STP/g],   92.8552995986 (avg.  94.5065689578) [cm^3 STP/cm^3]
----------------------------------------------------------------------------------------------------------------------------------------------------
Degrees of freedom: 480 0 480 0
Number of Framework-atoms:   2784
Number of Adsorbates:          96 (96 integer, 0 fractional, 0 reaction)
Number of Cations:              0 (0 integer, 0 fractional, 0 reaction)

Current total potential energy:           -581625.2460770539 [K]  (avg.     -569456.2291826997)
	Current Host-Host energy:                     0.0000000000 [K]  (avg.           0.0000000000)
	Current Host-Adsorbate energy:          -568174.5908643068 [K]  (avg.     -555635.3090011533)
	Current Host-Cation energy:                   0.0000000000 [K]  (avg.           0.0000000000)
	Current Adsorbate-Adsorbate energy:      -13450.6552127213 [K]  (avg.      -13820.9201815346)
	Current Cation-Cation energy:                 0.0000000000 [K]  (avg.           0.0000000000)
	Current Adsorbate-Cation energy:              0.0000000000 [K]  (avg.           0.0000000000)

WARNING: THE SYSTEM HAS A NET CHARGE 


Current cycle: 8900 out of 10000
========================================================================================================

Net charge: -590.4 (F: -590.4, A: 0, C: 0)
Current Box:  25.09940  -4.63725   0.00000 [A]   Average Box:  25.09940  -4.63725   0.00000 [A]
               0.00000  35.19017   0.00000 [A]                  0.00000  35.19017   0.00000 [A]
               0.00000   0.00000  43.56600 [A]                  0.00000   0.00000  43.56600 [A]
Box-lengths:   25.09940  35.49440  43.56600 [A] Average:  25.09940  35.49440  43.56600 [A]
Box-angles:   90.00000  90.00000  97.50700 [degrees] Average:  90.00000  90.00000  97.50700 [degrees]
Volume: 38479.76789 [A^3] Average Volume: 38479.76789 [A^3]

Loadings per component:
----------------------------------------------------------------------------------------------------------------------------------------------------
Component 0 (CO2), current number of integer/fractional/reaction molecules: 97/0/0 (avg.  97.70183), density: 184.17451 (avg. 185.50708) [kg/m^3]
	absolute adsorption:  12.12500 (avg.  12.21273) [mol/uc],   3.0885588174 (avg.   3.1109056948) [mol/kg], 135.8928816956 (avg. 136.8761174863) [mg/g]
	                      69.2268824285 (avg.  69.7277647973) [cm^3 STP/g],   93.8225423028 (avg.  94.5013834636) [cm^3 STP/cm^3]
	excess adsorption:    12.1250000000 (avg.  12.2127289069) [mol/uc],   3.0885588174 (avg.   3.1109056948) [mol/kg], 135.8928816956 (avg. 136.8761174863) [mg/g]
	                      69.2268824285 (avg.  69.7277647973) [cm^3 STP/g],   93.8225423028 (avg.  94.5013834636) [cm^3 STP/cm^3]
----------------------------------------------------------------------------------------------------------------------------------------------------
Degrees of freedom: 485 0 485 0
Number of Framework-atoms:   2784
Number of Adsorbates:          97 (97 integer, 0 fractional, 0 reaction)
Number of Cations:              0 (0 integer, 0 fractional, 0 reaction)

Current total potential energy:           -583538.7951699275 [K]  (avg.     -569643.9724303784)
	Current Host-Host energy:                     0.0000000000 [K]  (avg.           0.0000000000)
	Current Host-Adsorbate energy:          -566939.0181718161 [K]  (avg.     -555810.9598956566)
	Current Host-Cation energy:                   0.0000000000 [K]  (avg.           0.0000000000)
	Current Adsorbate-Adsorbate energy:      -16599.7769980887 [K]  (avg.      -13833.0125347099)
	Current Cation-Cation energy:                 0.0000000000 [K]  (avg.           0.0000000000)
	Current Adsorbate-Cation energy:              0.0000000000 [K]  (avg.           0.0000000000)

WARNING: THE SYSTEM HAS A NET CHARGE 


Current cycle: 9000 out of 10000
========================================================================================================

Net charge: -590.4 (F: -590.4, A: 0, C: 0)
Current Box:  25.09940  -4.63725   0.00000 [A]   Average Box:  25.09940  -4.63725   0.00000 [A]
               0.00000  35.19017   0.00000 [A]                  0.00000  35.19017   0.00000 [A]
               0.00000   0.00000  43.56600 [A]                  0.00000   0.00000  43.56600 [A]
Box-lengths:   25.09940  35.49440  43.56600 [A] Average:  25.09940  35.49440  43.56600 [A]
Box-angles:   90.00000  90.00000  97.50700 [degrees] Average:  90.00000  90.00000  97.50700 [degrees]
Volume: 38479.76789 [A^3] Average Volume: 38479.76789 [A^3]

Loadings per component:
----------------------------------------------------------------------------------------------------------------------------------------------------
Component 0 (CO2), current number of integer/fractional/reaction molecules: 97/0/0 (avg.  97.67859), density: 184.17451 (avg. 185.46295) [kg/m^3]
	absolute adsorption:  12.12500 (avg.  12.20982) [mol/uc],   3.0885588174 (avg.   3.1101657148) [mol/kg], 135.8928816956 (avg. 136.8435592508) [mg/g]
	                      69.2268824285 (avg.  69.7111789017) [cm^3 STP/g],   93.8225423028 (avg.  94.4789047555) [cm^3 STP/cm^3]
	excess adsorption:    12.1250000000 (avg.  12.2098239085) [mol/uc],   3.0885588174 (avg.   3.1101657148) [mol/kg], 135.8928816956 (avg. 136.8435592508) [mg/g]
	                      69.2268824285 (avg.  69.7111789017) [cm^3 STP/g],   93.8225423028 (avg.  94.4789047555) [cm^3 STP/cm^3]
----------------------------------------------------------------------------------------------------------------------------------------------------
Degrees of freedom: 485 0 485 0
Number of Framework-atoms:   2784
Number of Adsorbates:          97 (97 integer, 0 fractional, 0 reaction)
Number of Cations:              0 (0 integer, 0 fractional, 0 reaction)

Current total potential energy:           -578970.6048250570 [K]  (avg.     -569692.1557481601)
	Current Host-Host energy:                     0.0000000000 [K]  (avg.           0.0000000000)
	Current Host-Adsorbate energy:          -562677.9786532278 [K]  (avg.     -555834.6897444825)
	Current Host-Cation energy:                   0.0000000000 [K]  (avg.           0.0000000000)
	Current Adsorbate-Adsorbate energy:      -16292.6261718049 [K]  (avg.      -13857.4660036656)
	Current Cation-Cation energy:                 0.0000000000 [K]  (avg.           0.0000000000)
	Current Adsorbate-Cation energy:              0.0000000000 [K]  (avg.           0.0000000000)

WARNING: THE SYSTEM HAS A NET CHARGE 


Current cycle: 9100 out of 10000
========================================================================================================

Net charge: -590.4 (F: -590.4, A: 0, C: 0)
Current Box:  25.09940  -4.63725   0.00000 [A]   Average Box:  25.09940  -4.63725   0.00000 [A]
               0.00000  35.19017   0.00000 [A]                  0.00000  35.19017   0.00000 [A]
               0.00000   0.00000  43.56600 [A]                  0.00000   0.00000  43.56600 [A]
Box-lengths:   25.09940  35.49440  43.56600 [A] Average:  25.09940  35.49440  43.56600 [A]
Box-angles:   90.00000  90.00000  97.50700 [degrees] Average:  90.00000  90.00000  97.50700 [degrees]
Volume: 38479.76789 [A^3] Average Volume: 38479.76789 [A^3]

Loadings per component:
----------------------------------------------------------------------------------------------------------------------------------------------------
Component 0 (CO2), current number of integer/fractional/reaction molecules: 94/0/0 (avg.  97.65872), density: 178.47839 (avg. 185.42522) [kg/m^3]
	absolute adsorption:  11.75000 (avg.  12.20734) [mol/uc],   2.9930363798 (avg.   3.1095329600) [mol/kg], 131.6900090659 (avg. 136.8157187983) [mg/g]
	                      67.0858448276 (avg.  69.6969963507) [cm^3 STP/g],   90.9208141903 (avg.  94.4596832775) [cm^3 STP/cm^3]
	excess adsorption:    11.7500000000 (avg.  12.2073398528) [mol/uc],   2.9930363798 (avg.   3.1095329600) [mol/kg], 131.6900090659 (avg. 136.8157187983) [mg/g]
	                      67.0858448276 (avg.  69.6969963507) [cm^3 STP/g],   90.9208141903 (avg.  94.4596832775) [cm^3 STP/cm^3]
----------------------------------------------------------------------------------------------------------------------------------------------------
Degrees of freedom: 470 0 470 0
Number of Framework-atoms:   2784
Number of Adsorbates:          94 (94 integer, 0 fractional, 0 reaction)
Number of Cations:              0 (0 integer, 0 fractional, 0 reaction)

Current total potential energy:           -574133.3267574322 [K]  (avg.     -569785.7780157087)
	Current Host-Host energy:                     0.0000000000 [K]  (avg.           0.0000000000)
	Current Host-Adsorbate energy:          -560650.5078255835 [K]  (avg.     -555930.8256101047)
	Current Host-Cation energy:                   0.0000000000 [K]  (avg.           0.0000000000)
	Current Adsorbate-Adsorbate energy:      -13482.8189318222 [K]  (avg.      -13854.9524055917)
	Current Cation-Cation energy:                 0.0000000000 [K]  (avg.           0.0000000000)
	Current Adsorbate-Cation energy:              0.0000000000 [K]  (avg.           0.0000000000)

WARNING: THE SYSTEM HAS A NET CHARGE 


Current cycle: 9200 out of 10000
========================================================================================================

Net charge: -590.4 (F: -590.4, A: 0, C: 0)
Current Box:  25.09940  -4.63725   0.00000 [A]   Average Box:  25.09940  -4.63725   0.00000 [A]
               0.00000  35.19017   0.00000 [A]                  0.00000  35.19017   0.00000 [A]
               0.00000   0.00000  43.56600 [A]                  0.00000   0.00000  43.56600 [A]
Box-lengths:   25.09940  35.49440  43.56600 [A] Average:  25.09940  35.49440  43.56600 [A]
Box-angles:   90.00000  90.00000  97.50700 [degrees] Average:  90.00000  90.00000  97.50700 [degrees]
Volume: 38479.76789 [A^3] Average Volume: 38479.76789 [A^3]

Loadings per component:
----------------------------------------------------------------------------------------------------------------------------------------------------
Component 0 (CO2), current number of integer/fractional/reaction molecules: 93/0/0 (avg.  97.61211), density: 176.57968 (avg. 185.33672) [kg/m^3]
	absolute adsorption:  11.62500 (avg.  12.20151) [mol/uc],   2.9611955672 (avg.   3.1080488137) [mol/kg], 130.2890515226 (avg. 136.7504181464) [mg/g]
	                      66.3721656274 (avg.  69.6637307337) [cm^3 STP/g],   89.9535714862 (avg.  94.4145986999) [cm^3 STP/cm^3]
	excess adsorption:    11.6250000000 (avg.  12.2015134225) [mol/uc],   2.9611955672 (avg.   3.1080488137) [mol/kg], 130.2890515226 (avg. 136.7504181464) [mg/g]
	                      66.3721656274 (avg.  69.6637307337) [cm^3 STP/g],   89.9535714862 (avg.  94.4145986999) [cm^3 STP/cm^3]
----------------------------------------------------------------------------------------------------------------------------------------------------
Degrees of freedom: 465 0 465 0
Number of Framework-atoms:   2784
Number of Adsorbates:          93 (93 integer, 0 fractional, 0 reaction)
Number of Cations:              0 (0 integer, 0 fractional, 0 reaction)

Current total potential energy:           -571514.7420856863 [K]  (avg.     -569806.0672274457)
	Current Host-Host energy:                     0.0000000000 [K]  (avg.           0.0000000000)
	Current Host-Adsorbate energy:          -559375.2726472168 [K]  (avg.     -555961.4040852340)
	Current Host-Cation energy:                   0.0000000000 [K]  (avg.           0.0000000000)
	Current Adsorbate-Adsorbate energy:      -12139.4694384422 [K]  (avg.      -13844.6631421991)
	Current Cation-Cation energy:                 0.0000000000 [K]  (avg.           0.0000000000)
	Current Adsorbate-Cation energy:              0.0000000000 [K]  (avg.           0.0000000000)

WARNING: THE SYSTEM HAS A NET CHARGE 


Current cycle: 9300 out of 10000
========================================================================================================

Net charge: -590.4 (F: -590.4, A: 0, C: 0)
Current Box:  25.09940  -4.63725   0.00000 [A]   Average Box:  25.09940  -4.63725   0.00000 [A]
               0.00000  35.19017   0.00000 [A]                  0.00000  35.19017   0.00000 [A]
               0.00000   0.00000  43.56600 [A]                  0.00000   0.00000  43.56600 [A]
Box-lengths:   25.09940  35.49440  43.56600 [A] Average:  25.09940  35.49440  43.56600 [A]
Box-angles:   90.00000  90.00000  97.50700 [degrees] Average:  90.00000  90.00000  97.50700 [degrees]
Volume: 38479.76789 [A^3] Average Volume: 38479.76789 [A^3]

Loadings per component:
----------------------------------------------------------------------------------------------------------------------------------------------------
Component 0 (CO2), current number of integer/fractional/reaction molecules: 97/0/0 (avg.  97.56435), density: 184.17451 (avg. 185.24604) [kg/m^3]
	absolute adsorption:  12.12500 (avg.  12.19554) [mol/uc],   3.0885588174 (avg.   3.1065281137) [mol/kg], 135.8928816956 (avg. 136.6835091706) [mg/g]
	                      69.2268824285 (avg.  69.6296458005) [cm^3 STP/g],   93.8225423028 (avg.  94.3684037106) [cm^3 STP/cm^3]
	excess adsorption:    12.1250000000 (avg.  12.1955434899) [mol/uc],   3.0885588174 (avg.   3.1065281137) [mol/kg], 135.8928816956 (avg. 136.6835091706) [mg/g]
	                      69.2268824285 (avg.  69.6296458005) [cm^3 STP/g],   93.8225423028 (avg.  94.3684037106) [cm^3 STP/cm^3]
----------------------------------------------------------------------------------------------------------------------------------------------------
Degrees of freedom: 485 0 485 0
Number of Framework-atoms:   2784
Number of Adsorbates:          97 (97 integer, 0 fractional, 0 reaction)
Number of Cations:              0 (0 integer, 0 fractional, 0 reaction)

Current total potential energy:           -588241.2002940555 [K]  (avg.     -569855.3738129607)
	Current Host-Host energy:                     0.0000000000 [K]  (avg.           0.0000000000)
	Current Host-Adsorbate energy:          -576524.5197054719 [K]  (avg.     -556046.4435620800)
	Current Host-Cation energy:                   0.0000000000 [K]  (avg.           0.0000000000)
	Current Adsorbate-Adsorbate energy:      -11716.6805885546 [K]  (avg.      -13808.9302508680)
	Current Cation-Cation energy:                 0.0000000000 [K]  (avg.           0.0000000000)
	Current Adsorbate-Cation energy:              0.0000000000 [K]  (avg.           0.0000000000)

WARNING: THE SYSTEM HAS A NET CHARGE 


Current cycle: 9400 out of 10000
========================================================================================================

Net charge: -590.4 (F: -590.4, A: 0, C: 0)
Current Box:  25.09940  -4.63725   0.00000 [A]   Average Box:  25.09940  -4.63725   0.00000 [A]
               0.00000  35.19017   0.00000 [A]                  0.00000  35.19017   0.00000 [A]
               0.00000   0.00000  43.56600 [A]                  0.00000   0.00000  43.56600 [A]
Box-lengths:   25.09940  35.49440  43.56600 [A] Average:  25.09940  35.49440  43.56600 [A]
Box-angles:   90.00000  90.00000  97.50700 [degrees] Average:  90.00000  90.00000  97.50700 [degrees]
Volume: 38479.76789 [A^3] Average Volume: 38479.76789 [A^3]

Loadings per component:
----------------------------------------------------------------------------------------------------------------------------------------------------
Component 0 (CO2), current number of integer/fractional/reaction molecules: 95/0/0 (avg.  97.54824), density: 180.37709 (avg. 185.21545) [kg/m^3]
	absolute adsorption:  11.87500 (avg.  12.19353) [mol/uc],   3.0248771923 (avg.   3.1060152101) [mol/kg], 133.0909666091 (avg. 136.6609420273) [mg/g]
	                      67.7995240279 (avg.  69.6181495914) [cm^3 STP/g],   91.8880568945 (avg.  94.3528230067) [cm^3 STP/cm^3]
	excess adsorption:    11.8750000000 (avg.  12.1935299436) [mol/uc],   3.0248771923 (avg.   3.1060152101) [mol/kg], 133.0909666091 (avg. 136.6609420273) [mg/g]
	                      67.7995240279 (avg.  69.6181495914) [cm^3 STP/g],   91.8880568945 (avg.  94.3528230067) [cm^3 STP/cm^3]
----------------------------------------------------------------------------------------------------------------------------------------------------
Degrees of freedom: 475 0 475 0
Number of Framework-atoms:   2784
Number of Adsorbates:          95 (95 integer, 0 fractional, 0 reaction)
Number of Cations:              0 (0 integer, 0 fractional, 0 reaction)

Current total potential energy:           -577029.3335261571 [K]  (avg.     -569976.6801522226)
	Current Host-Host energy:                     0.0000000000 [K]  (avg.           0.0000000000)
	Current Host-Adsorbate energy:          -564904.9718647159 [K]  (avg.     -556172.8338693979)
	Current Host-Cation energy:                   0.0000000000 [K]  (avg.           0.0000000000)
	Current Adsorbate-Adsorbate energy:      -12124.3616614154 [K]  (avg.      -13803.8462828121)
	Current Cation-Cation energy:                 0.0000000000 [K]  (avg.           0.0000000000)
	Current Adsorbate-Cation energy:              0.0000000000 [K]  (avg.           0.0000000000)

WARNING: THE SYSTEM HAS A NET CHARGE 


